ID,Name,InChI,InChIKey,SMILES,Solubility,SD,Occurrences,Group,MolWt,MolLogP,MolMR,HeavyAtomCount,NumHAcceptors,NumHDonors,NumHeteroatoms,NumRotatableBonds,NumValenceElectrons,NumAromaticRings,NumSaturatedRings,NumAliphaticRings,RingCount,TPSA,LabuteASA,BalabanJ,BertzCT
B-71,testosterone propionate,"InChI=1S/C22H32O3/c1-4-20(24)25-19-8-7-17-16-6-5-14-13-15(23)9-11-21(14,2)18(16)10-12-22(17,19)3/h13,16-19H,4-12H2,1-3H3/t16-,17-,18-,19-,21-,22-/m0/s1",PDMMFKSKQVNJMI-BLQWBTBKSA-N,CCC(=O)O[C@H]1CC[C@H]2[C@@H]3CCC4=CC(=O)CC[C@]4(C)[C@H]3CC[C@]12C,-5.3669,0.0,1,G1,344.4950000000001,4.840100000000005,96.88100000000006,25.0,3.0,0.0,3.0,2.0,138.0,0.0,3.0,4.0,4.0,43.370000000000005,151.12669721345156,1.590853355055114,620.761871865839
B-269,"preg-4-ene-3,20-dione, 11-hydroxy-, (11.alpha.)-","InChI=1S/C21H30O3/c1-12(22)16-6-7-17-15-5-4-13-10-14(23)8-9-20(13,2)19(15)18(24)11-21(16,17)3/h10,15-19,24H,4-9,11H2,1-3H3/t15-,16?,17-,18+,19+,20-,21+/m0/s1",BFZHCUBIASXHPK-ODYOLWGQSA-N,CC(=O)C1CC[C@H]2[C@@H]3CCC4=CC(=O)CC[C@]4(C)[C@H]3[C@H](O)C[C@]12C,-3.8202,0.0,1,G1,330.468,3.694300000000003,92.27080000000004,24.0,3.0,1.0,3.0,1.0,132.0,0.0,3.0,4.0,4.0,54.370000000000005,144.4424436217441,1.7233351689464649,620.5733968704452
B-939,ethisterone,"InChI=1S/C21H28O2/c1-4-21(23)12-9-18-16-6-5-14-13-15(22)7-10-19(14,2)17(16)8-11-20(18,21)3/h1,13,16-18,23H,5-12H2,2-3H3/t16-,17+,18+,19+,20+,21+/m1/s1",CHNXZKVNWQUJIB-CEGNMAFCSA-N,C#C[C@]1(O)CC[C@H]2[C@@H]3CCC4=CC(=O)CC[C@]4(C)[C@H]3CC[C@@]21C,-5.6576,0.1973524648999998,2,G3,312.45300000000003,3.8826000000000023,90.49280000000005,23.0,2.0,1.0,2.0,0.0,124.0,0.0,3.0,4.0,4.0,37.3,139.2801469135596,1.7024099249747309,626.2430525943431
B-4510,deoxycorticosterone acetate,"InChI=1S/C23H32O4/c1-14(24)27-13-21(26)20-7-6-18-17-5-4-15-12-16(25)8-10-22(15,2)19(17)9-11-23(18,20)3/h12,17-20H,4-11,13H2,1-3H3/t17-,18-,19-,20+,22-,23-/m0/s1",VPGRYOFKCNULNK-ACXQXYJUSA-N,CC(=O)OCC(=O)[C@H]1CC[C@H]2[C@@H]3CCC4=CC(=O)CC[C@]4(C)[C@H]3CC[C@]12C,-4.6301,0.0,1,G1,372.5050000000002,4.266700000000004,101.84000000000006,27.0,4.0,0.0,4.0,3.0,148.0,0.0,3.0,4.0,4.0,60.440000000000005,161.65316142789197,1.5550748620254948,707.1669090421246
B-4564,hydrocortisone acetate,"InChI=1S/C23H32O6/c1-13(24)29-12-19(27)23(28)9-7-17-16-5-4-14-10-15(25)6-8-21(14,2)20(16)18(26)11-22(17,23)3/h10,16-18,20,26,28H,4-9,11-12H2,1-3H3/t16-,17-,18-,20+,21-,22-,23-/m0/s1",ALEXXDVDDISNDU-JZYPGELDSA-N,CC(=O)OCC(=O)[C@@]1(O)CC[C@H]2[C@@H]3CCC4=CC(=O)CC[C@]4(C)[C@H]3[C@@H](O)C[C@@]21C,-4.4577,0.6489681422,2,G2,404.5030000000002,2.3524000000000003,104.68960000000006,29.0,6.0,2.0,6.0,3.0,160.0,0.0,3.0,4.0,4.0,100.90000000000002,171.24162893228396,1.6546195138211754,786.2375645587604
B-4566,corticosterone,"InChI=1S/C21H30O4/c1-20-8-7-13(23)9-12(20)3-4-14-15-5-6-16(18(25)11-22)21(15,2)10-17(24)19(14)20/h9,14-17,19,22,24H,3-8,10-11H2,1-2H3/t14-,15-,16+,17-,19+,20-,21-/m0/s1",OMFXVFTZEKFJBZ-HJTSIMOOSA-N,C[C@]12C[C@H](O)[C@H]3[C@@H](CCC4=CC(=O)CC[C@@]43C)[C@@H]1CC[C@@H]2C(=O)CO,-3.2408,0.0,1,G1,346.46700000000016,2.666700000000002,93.68260000000004,25.0,4.0,2.0,4.0,2.0,138.0,0.0,3.0,4.0,4.0,74.6,149.2366773739401,1.7001113115352158,637.8073073537269
B-4571,progesterone,"InChI=1S/C21H30O2/c1-13(22)17-6-7-18-16-5-4-14-12-15(23)8-10-20(14,2)19(16)9-11-21(17,18)3/h12,16-19H,4-11H2,1-3H3/t16-,17+,18-,19-,20-,21+/m0/s1",RJKFOVLPORLFTN-LEKSSAKUSA-N,CC(=O)[C@H]1CC[C@H]2[C@@H]3CCC4=CC(=O)CC[C@]4(C)[C@H]3CC[C@]12C,-4.5526,0.0222359889999999,2,G3,314.46900000000005,4.723500000000005,90.88100000000006,23.0,2.0,0.0,2.0,1.0,126.0,0.0,3.0,4.0,4.0,34.14,139.6482098695481,1.6696033124820626,588.6489897976311
B-4572,17-methyltestosterone,"InChI=1S/C20H30O2/c1-18-9-6-14(21)12-13(18)4-5-15-16(18)7-10-19(2)17(15)8-11-20(19,3)22/h12,15-17,22H,4-11H2,1-3H3/t15-,16+,17+,18+,19+,20+/m1/s1",GCKMFJBGXUYNAG-HLXURNFRSA-N,C[C@]12CCC(=O)C=C1CC[C@@H]1[C@@H]2CC[C@@]2(C)[C@H]1CC[C@]2(C)O,-3.9505,0.0,1,G1,302.4580000000001,4.269300000000004,87.33380000000005,22.0,2.0,1.0,2.0,0.0,122.0,0.0,3.0,4.0,4.0,37.3,133.91597940730372,1.6968001719233186,545.9104984355639
B-4573,testosterone,"InChI=1S/C19H28O2/c1-18-9-7-13(20)11-12(18)3-4-14-15-5-6-17(21)19(15,2)10-8-16(14)18/h11,14-17,21H,3-10H2,1-2H3/t14-,15-,16-,17-,18-,19-/m0/s1",MUMGGOZAMZWBJJ-DYKIIFRCSA-N,C[C@]12CC[C@H]3[C@@H](CCC4=CC(=O)CC[C@@]43C)[C@@H]1CC[C@@H]2O,-4.0908,0.4936124465500002,2,G3,288.431,3.879200000000003,82.71680000000005,21.0,2.0,1.0,2.0,0.0,116.0,0.0,3.0,4.0,4.0,37.3,127.55103729290713,1.6883496404253646,507.69574308017087
B-4575,deoxycorticosterone,"InChI=1S/C21H30O3/c1-20-9-7-14(23)11-13(20)3-4-15-16-5-6-18(19(24)12-22)21(16,2)10-8-17(15)20/h11,15-18,22H,3-10,12H2,1-2H3/t15-,16-,17-,18+,20-,21-/m0/s1",ZESRJSPZRDMNHY-YFWFAHHUSA-N,C[C@]12CC[C@H]3[C@@H](CCC4=CC(=O)CC[C@@]43C)[C@@H]1CC[C@@H]2C(=O)CO,-3.7446,0.0,1,G1,330.4680000000001,3.695900000000003,92.29280000000004,24.0,3.0,1.0,3.0,2.0,132.0,0.0,3.0,4.0,4.0,54.370000000000005,144.44244362174408,1.646027462326123,606.2051148204893
B-4577,17-alpha-hydroxyprogesterone,"InChI=1S/C21H30O3/c1-13(22)21(24)11-8-18-16-5-4-14-12-15(23)6-9-19(14,2)17(16)7-10-20(18,21)3/h12,16-18,24H,4-11H2,1-3H3/t16-,17+,18+,19+,20+,21+/m1/s1",DBPWSSGDRRHUNT-CEGNMAFCSA-N,CC(=O)[C@@]1(O)CC[C@H]2[C@@H]3CCC4=CC(=O)CC[C@]4(C)[C@H]3CC[C@@]21C,-4.7076,0.0,1,G1,330.4680000000001,3.8384000000000023,92.34080000000006,24.0,3.0,1.0,3.0,1.0,132.0,0.0,3.0,4.0,4.0,54.37,144.4424436217441,1.6975828976870395,634.995115124503
E-1038,"1,7-phenantroline",InChI=1S/C12H8N2/c1-2-4-10-9(3-1)5-6-11-12(10)14-8-7-13-11/h1-8H,YUFRAQHYKKPYLH-UHFFFAOYSA-N,c1ccc2c(c1)ccc1nccnc12,-2.68,0.0,1,G1,180.21,2.7830000000000013,57.04400000000003,14.0,2.0,0.0,2.0,0.0,66.0,3.0,0.0,0.0,3.0,25.78,81.2340281448604,2.6103186874159423,547.2925174892929
A-373,"1,4-dioxacyclohexadecane-5,16-dione",InChI=1S/C14H24O4/c15-13-9-7-5-3-1-2-4-6-8-10-14(16)18-12-11-17-13/h1-12H2,GJJSUPSPZIZYPM-UHFFFAOYSA-N,O=C1CCCCCCCCCCC(=O)OCCO1,-3.533758505,0.0,1,G1,256.3419999999999,2.987400000000002,68.08800000000005,18.0,4.0,0.0,4.0,0.0,104.0,0.0,1.0,1.0,1.0,52.60000000000001,109.02780202055756,2.218727882452173,224.178546460492
A-2155,N-(2-ethoxyphenyl)-N'-(2-ethylphenyl)ethanediamide,"InChI=1S/C18H20N2O3/c1-3-13-9-5-6-10-14(13)19-17(21)18(22)20-15-11-7-8-12-16(15)23-4-2/h5-12H,3-4H2,1-2H3,(H,19,21)(H,20,22)",YIMHRDBSVCPJOV-UHFFFAOYSA-N,CCOc1ccccc1NC(=O)C(=O)Nc1ccccc1CC,-6.0175466725,0.0,1,G1,312.3690000000001,3.2249000000000017,90.69040000000004,23.0,3.0,2.0,5.0,5.0,120.0,2.0,0.0,0.0,2.0,67.42999999999999,135.2144638087512,2.074000729231524,698.1709828705707
A-2606,N-(2-ethoxyphenyl)-N'-[4-(10-methylundecyl)phenyl]ethanediamide,"InChI=1S/C28H40N2O3/c1-4-33-26-17-13-12-16-25(26)30-28(32)27(31)29-24-20-18-23(19-21-24)15-11-9-7-5-6-8-10-14-22(2)3/h12-13,16-22H,4-11,14-15H2,1-3H3,(H,29,31)(H,30,32)",PIPJHDJQUXGVNR-UHFFFAOYSA-N,CCOc1ccccc1NC(=O)C(=O)Nc1ccc(CCCCCCCCCC(C)C)cc1,-6.0994494699,0.0,1,G1,452.63900000000046,6.981800000000008,136.79039999999995,33.0,3.0,2.0,5.0,14.0,180.0,2.0,0.0,0.0,2.0,67.42999999999999,198.86388495271729,1.6690637732324365,846.4759254775211
F-838,"4,6-dimethyl-8,9,10,11-tetrahydro-[1]benzoxolo[2,3-h]chromen-2-one","InChI=1S/C17H16O3/c1-9-8-14(18)20-17-12(9)7-10(2)16-15(17)11-5-3-4-6-13(11)19-16/h7-8H,3-6H2,1-2H3",PDLIOFGQZOFSJT-UHFFFAOYSA-N,Cc1cc(=O)oc2c1cc(C)c1oc3c(c12)CCCC3,-5.09,0.0,1,G1,268.3119999999999,4.0348400000000035,78.37200000000004,20.0,3.0,0.0,3.0,0.0,102.0,3.0,0.0,1.0,4.0,43.35,115.73922190394744,2.2762239659502823,896.1107338709409
G-1036,RTI 16,"InChI=1S/C14H14N4S/c1-3-18-12-10(6-4-8-15-12)14(19)17(2)11-7-5-9-16-13(11)18/h4-9H,3H2,1-2H3",YNARWAUTTJJADX-UHFFFAOYSA-N,CCN1c2ncccc2C(=S)N(C)c2cccnc21,-4.6339999999999995,0.0,1,G1,270.361,2.759900000000001,81.25700000000003,19.0,4.0,0.0,5.0,1.0,96.0,2.0,0.0,1.0,3.0,32.260000000000005,117.26017817912285,2.314459898588003,640.8480202986965
B-1434,bilirubin,"InChI=1S/C33H36N4O6/c1-7-20-19(6)32(42)37-27(20)14-25-18(5)23(10-12-31(40)41)29(35-25)15-28-22(9-11-30(38)39)17(4)24(34-28)13-26-16(3)21(8-2)33(43)36-26/h7-8,13-14,34-35H,1-2,9-12,15H2,3-6H3,(H,36,43)(H,37,42)(H,38,39)(H,40,41)/b26-13-,27-14-",BPYKTIZUTYGOLE-IFADSCNNSA-N,C=CC1=C(C)/C(=C/c2[nH]c(Cc3[nH]c(/C=C4\NC(=O)C(C)=C4C=C)c(C)c3CCC(=O)O)c(CCC(=O)O)c2C)NC1=O,-4.8127,0.0,1,G1,584.6730000000005,4.531240000000003,163.8123999999998,43.0,4.0,6.0,10.0,12.0,224.0,2.0,0.0,2.0,4.0,164.38,249.2153707991241,1.8045680576138412,1705.9496132769696
A-124,"sodium 1-amino-9,10-dioxo-4-({2,4,6-trimethyl-3-[(phenylformamido)methyl]phenyl}amino)-9,10-dihydroanthracene-2-sulfonate","InChI=1S/C31H27N3O6S.Na/c1-16-13-17(2)28(18(3)22(16)15-33-31(37)19-9-5-4-6-10-19)34-23-14-24(41(38,39)40)27(32)26-25(23)29(35)20-11-7-8-12-21(20)30(26)36;/h4-14,34H,15,32H2,1-3H3,(H,33,37)(H,38,39,40);/q;+1/p-1",OFHDOLUPOLKDSG-UHFFFAOYSA-M,Cc1cc(C)c(Nc2cc(S(=O)(=O)[O-])c(N)c3c2C(=O)c2ccccc2C3=O)c(C)c1CNC(=O)c1ccccc1.[Na+],-1.4396051212999998,0.0,1,G1,591.6210000000003,1.5511600000000008,153.6724999999998,42.0,8.0,3.0,11.0,6.0,208.0,4.0,0.0,1.0,5.0,158.48999999999998,265.1176663820488,4.049991229594891e-06,1889.0811835864993
B-2087,lactulose,"InChI=1S/C12H22O11/c13-1-4-6(16)7(17)8(18)11(21-4)22-9-5(2-14)23-12(20,3-15)10(9)19/h4-11,13-20H,1-3H2/t4-,5-,6+,7+,8-,9-,10+,11+,12-/m1/s1",JCQLYHFGKNRPGE-FCVZTGTOSA-N,OC[C@H]1O[C@@H](O[C@@H]2[C@@H](CO)O[C@](O)(CO)[C@H]2O)[C@H](O)[C@@H](O)[C@H]1O,0.3487,0.0,1,G1,342.29699999999997,-5.395599999999993,68.64140000000003,23.0,11.0,8.0,11.0,5.0,136.0,0.0,2.0,2.0,2.0,189.52999999999997,130.43645768522254,2.1281884089863876,393.2032272794937
A-69,"2-(morpholin-4-ylsulfanyl)-1,3-benzothiazole","InChI=1S/C11H12N2OS2/c1-2-4-10-9(3-1)12-11(15-10)16-13-5-7-14-8-6-13/h1-4H,5-8H2",MHKLKWCYGIBEQF-UHFFFAOYSA-N,c1ccc2sc(SN3CCOCC3)nc2c1,-3.8109627954,0.0,1,G1,252.364,2.635600000000001,67.86900000000003,16.0,5.0,0.0,5.0,2.0,84.0,2.0,1.0,1.0,3.0,25.36,102.55888264235138,1.7778971173782272,446.544227692605
B-2701,"2h-purine-2-thione, 1,3-dihydro-","InChI=1S/C5H4N4S/c10-5-6-1-3-4(9-5)8-2-7-3/h1-2H,(H2,6,7,8,9,10)",HDBQZGJWHMCXIL-UHFFFAOYSA-N,S=c1ncc2[nH]cnc2[nH]1,-2.5803,0.0,1,G1,152.18200000000002,1.0154899999999998,39.07339999999999,10.0,3.0,2.0,5.0,0.0,50.0,2.0,0.0,0.0,2.0,57.36,61.339952262290886,2.990320309898347,400.94019739120694
C-2383,"3,4'-ace-1,2-benzanthracene","InChI=1S/C20H14/c1-2-5-15-12-19-17(10-14(15)4-1)11-16-9-8-13-6-3-7-18(19)20(13)16/h1-7,10-12H,8-9H2",PMNATJJZOUNELG-UHFFFAOYSA-N,c1ccc2cc3c(cc4c5c(cccc53)CC4)cc2c1,-2.97,0.0,1,G1,254.332,5.244800000000003,86.36800000000002,20.0,0.0,0.0,0.0,0.0,94.0,4.0,0.0,1.0,5.0,0.0,117.20044978996658,2.070951863857911,992.7859948151678
A-21,2-(4-tert-butylphenoxymethyl)oxirane,"InChI=1S/C13H18O2/c1-13(2,3)10-4-6-11(7-5-10)14-8-12-9-15-12/h4-7,12H,8-9H2,1-3H3",HHRACYLRBOUBKM-UHFFFAOYSA-N,CC(C)(C)c1ccc(OCC2CO2)cc1,-3.4302388798,0.0,1,G1,206.28499999999997,2.761700000000001,60.377000000000045,15.0,2.0,0.0,2.0,3.0,82.0,1.0,1.0,1.0,2.0,21.76,91.20725722575776,1.961588002134354,317.38434399782966
A-1275,2-(phenoxymethyl)oxirane,"InChI=1S/C9H10O2/c1-2-4-8(5-3-1)10-6-9-7-11-9/h1-5,9H,6-7H2",FQYUMYWMJTYZTK-UHFFFAOYSA-N,c1ccc(OCC2CO2)cc1,-1.7963921827,0.0,1,G1,150.177,1.4641999999999995,41.67700000000003,11.0,2.0,0.0,2.0,3.0,58.0,1.0,1.0,1.0,2.0,21.76,65.74748876817132,1.8511911397161591,216.26415929370793
A-3029,2-(2-methylphenoxymethyl)oxirane,"InChI=1S/C10H12O2/c1-8-4-2-3-5-10(8)12-7-9-6-11-9/h2-5,9H,6-7H2,1H3",KFUSXMDYOPXKKT-UHFFFAOYSA-N,Cc1ccccc1OCC1CO1,-2.2911044462,0.0,1,G1,164.20399999999998,1.77262,46.41400000000003,12.0,2.0,0.0,2.0,3.0,64.0,1.0,1.0,1.0,2.0,21.76,72.11243088256792,1.9604804174339308,266.2960188386611
B-979,aucubin,"InChI=1S/C15H22O9/c16-4-6-3-8(18)7-1-2-22-14(10(6)7)24-15-13(21)12(20)11(19)9(5-17)23-15/h1-3,7-21H,4-5H2/t7-,8+,9+,10+,11+,12-,13+,14-,15-/m0/s1",RJWJHRPNHPHBRN-FKVJWERZSA-N,OCC1=C[C@@H](O)[C@@H]2C=CO[C@@H](O[C@@H]3O[C@H](CO)[C@@H](O)[C@H](O)[C@H]3O)[C@H]12,0.0119,0.0,1,G1,346.33200000000005,-2.8014999999999985,77.02080000000001,24.0,9.0,6.0,9.0,4.0,136.0,0.0,1.0,3.0,3.0,149.07,137.5577793061226,1.7493468910990029,505.17319473986976
D-1473,"benzene, 1,1'- oxybis(methylene) bis-","InChI=1S/C14H14O/c1-3-7-13(8-4-1)11-15-12-14-9-5-2-6-10-14/h1-10H,11-12H2",MHDVGSVTJDSBDK-UHFFFAOYSA-N,c1ccc(COCc2ccccc2)cc1,-3.695,0.01358177235,2,G3,198.265,3.403400000000002,61.37700000000004,15.0,1.0,0.0,1.0,4.0,76.0,2.0,0.0,0.0,2.0,9.23,90.3319267838611,1.8095807579695855,341.09815896246135
A-349,"1,1'-sulfanediyldibenzene",InChI=1S/C12H10S/c1-3-7-11(8-4-1)13-12-9-5-2-6-10-12/h1-10H,LTYMSROWYAPPGB-UHFFFAOYSA-N,c1ccc(Sc2ccccc2)cc1,-4.3606078686,0.0,1,G1,186.279,3.8378000000000023,57.00700000000003,13.0,1.0,0.0,1.0,2.0,64.0,2.0,0.0,0.0,2.0,0.0,82.61160735092623,2.1614757505786617,315.89864866417315
A-2615,"nickel(2+) ion butan-1-amine 2-{[2-oxido-5-(2,4,4-trimethylpentan-2-yl)phenyl]sulfanyl}-4-(2,4,4-trimethylpentan-2-yl)benzen-1-olate","InChI=1S/C28H42O2S.C4H11N.Ni/c1-25(2,3)17-27(7,8)19-11-13-21(29)23(15-19)31-24-16-20(12-14-22(24)30)28(9,10)18-26(4,5)6;1-2-3-4-5;/h11-16,29-30H,17-18H2,1-10H3;2-5H2,1H3;/q;;+2/p-2",DPLLDVMBMPQDCO-UHFFFAOYSA-L,CC(C)(C)CC(C)(C)c1ccc([O-])c(Sc2cc(C(C)(C)CC(C)(C)C)ccc2[O-])c1.CCCCN.[Ni+2],-6.4460405944,0.0,1,G1,572.5250000000002,8.155300000000008,154.05739999999977,37.0,4.0,1.0,5.0,8.0,212.0,2.0,0.0,0.0,2.0,72.14,241.89139161350448,1.964999529094652e-06,894.2289831046612
A-5770,2-tert-butyl-4-[(5-tert-butyl-4-hydroxy-2-methylphenyl)sulfanyl]-5-methylphenol,"InChI=1S/C22H30O2S/c1-13-9-17(23)15(21(3,4)5)11-19(13)25-20-12-16(22(6,7)8)18(24)10-14(20)2/h9-12,23-24H,1-8H3",HXIQYSLFEXIOAV-UHFFFAOYSA-N,Cc1cc(O)c(C(C)(C)C)cc1Sc1cc(C(C)(C)C)c(O)cc1C,-7.112066324,0.0,1,G1,358.54700000000014,6.460840000000005,107.21060000000006,25.0,3.0,2.0,3.0,2.0,136.0,2.0,0.0,0.0,2.0,40.46,155.8494959992844,2.537011223267222,725.6403481817905
B-404,"phenol, 2,2'-thiobis 4,6-dichloro-","InChI=1S/C12H6Cl4O2S/c13-5-1-7(15)11(17)9(3-5)19-10-4-6(14)2-8(16)12(10)18/h1-4,17-18H",JFIOVJDNOJYLKP-UHFFFAOYSA-N,Oc1c(Cl)cc(Cl)cc1Sc1cc(Cl)cc(Cl)c1O,-4.9495,0.0,1,G1,356.057,5.862600000000001,80.37660000000001,19.0,3.0,2.0,7.0,2.0,100.0,2.0,0.0,0.0,2.0,40.46,133.41313976284496,2.4729202264566297,590.6118891901951
B-1827,tetrasul,InChI=1S/C12H6Cl4S/c13-7-1-3-8(4-2-7)17-12-6-10(15)9(14)5-11(12)16/h1-6H,QUWSDLYBOVGOCW-UHFFFAOYSA-N,Clc1ccc(Sc2cc(Cl)c(Cl)cc2Cl)cc1,-7.0335,0.0,1,G1,324.05899999999997,6.451400000000001,77.04700000000001,17.0,1.0,0.0,5.0,2.0,88.0,2.0,0.0,0.0,2.0,0.0,123.82467225845292,2.2962610484217487,536.9470467453648
B-2178,"phenol, 4-(phenylthio)-","InChI=1S/C12H10OS/c13-10-6-8-12(9-7-10)14-11-4-2-1-3-5-11/h1-9,13H",XAYCNCYFKLSMGR-UHFFFAOYSA-N,Oc1ccc(Sc2ccccc2)cc1,-2.7745,0.0,1,G1,202.27800000000005,3.543400000000002,58.67180000000003,14.0,2.0,1.0,2.0,2.0,70.0,2.0,0.0,0.0,2.0,20.23,87.40584110312226,2.155110851234288,394.4267229032693
B-4235,abate,"InChI=1S/C16H20O6P2S3/c1-17-23(25,18-2)21-13-5-9-15(10-6-13)27-16-11-7-14(8-12-16)22-24(26,19-3)20-4/h5-12H,1-4H3",WWJZWCUNLNYYAU-UHFFFAOYSA-N,COP(=S)(OC)Oc1ccc(Sc2ccc(OP(=S)(OC)OC)cc2)cc1,-6.2375,0.4762500000000003,2,G3,466.47900000000016,5.630000000000004,114.869,27.0,9.0,0.0,11.0,10.0,148.0,2.0,0.0,0.0,2.0,55.38000000000001,173.5125033919799,2.00995144064202,743.5541844393117
F-830, Pyrrolidinyl sulfone,"InChI=1S/C8H16N2O2S/c11-13(12,9-5-1-2-6-9)10-7-3-4-8-10/h1-8H2",HMSYOMRFLOKYEK-UHFFFAOYSA-N,O=S(=O)(N1CCCC1)N1CCCC1,-0.44,0.0,1,G1,204.29499999999996,0.4228,50.533800000000035,13.0,2.0,0.0,5.0,2.0,76.0,0.0,2.0,2.0,2.0,40.620000000000005,79.69800426499768,2.0902353262966304,241.8686140532334
A-4810,"2,3,3-trimethyl-3H-indole-5-carboxylic acid","InChI=1S/C12H13NO2/c1-7-12(2,3)9-6-8(11(14)15)4-5-10(9)13-7/h4-6H,1-3H3,(H,14,15)",QUDAPQXQGBIUAR-UHFFFAOYSA-N,CC1=Nc2ccc(C(=O)O)cc2C1(C)C,-2.6625890537,0.0,1,G1,203.24099999999996,2.7684000000000006,59.19630000000002,15.0,2.0,1.0,3.0,1.0,78.0,1.0,0.0,1.0,2.0,49.66,88.46630299044729,2.598739650570946,472.5105053380406
F-20,"2,4-dimethyl-3H-1,5-benzodiazepine","InChI=1S/C11H12N2/c1-8-7-9(2)13-11-6-4-3-5-10(11)12-8/h3-6H,7H2,1-2H3",KSFDHSSNYJNHAN-UHFFFAOYSA-N,CC1=Nc2ccccc2N=C(C)C1,-1.37,0.0,1,G1,172.23099999999994,3.275100000000002,56.59700000000003,13.0,2.0,0.0,2.0,0.0,66.0,1.0,0.0,1.0,2.0,24.72,78.04092750967102,2.598518602841364,351.83168178915656
A-4092,"disodium 3,3'-[[6-[bis(2-hydroxyethyl)amino]-1,3,5-triazine-2,4-diyl]bis[imino(3-methoxy-4,1-phenylene)azo]]bis[benzenesulphonate]","InChI=1S/C33H34N10O10S2.2Na/c1-52-29-19-23(41-39-21-5-3-7-25(17-21)54(46,47)48)9-11-27(29)34-31-36-32(38-33(37-31)43(13-15-44)14-16-45)35-28-12-10-24(20-30(28)53-2)42-40-22-6-4-8-26(18-22)55(49,50)51;;/h3-12,17-20,44-45H,13-16H2,1-2H3,(H,46,47,48)(H,49,50,51)(H2,34,35,36,37,38);;/q;2*+1/p-2",NUTZBMSWUMFSIW-UHFFFAOYSA-L,COc1cc(N=Nc2cccc(S(=O)(=O)[O-])c2)ccc1Nc1nc(Nc2ccc(N=Nc3cccc(S(=O)(=O)[O-])c3)cc2OC)nc(N(CCO)CCO)n1.[Na+].[Na+],-1.6008155248,0.0,1,G1,838.7929999999999,-1.1859999999999935,195.9273999999997,57.0,20.0,4.0,24.0,17.0,288.0,5.0,0.0,0.0,5.0,288.72999999999996,371.1611195282808,4.351240756195504e-06,2283.53285574136
E-1005,Pregnenolone,"InChI=1S/C21H32O2/c1-13(22)17-6-7-18-16-5-4-14-12-15(23)8-10-20(14,2)19(16)9-11-21(17,18)3/h4,15-19,23H,5-12H2,1-3H3",ORNBQBCIOKFOEO-UHFFFAOYSA-N,CC(=O)C1CCC2C3CC=C4CC(O)CCC4(C)C3CCC12C,-4.65,0.0,1,G1,316.48500000000007,4.515300000000004,91.88080000000006,23.0,2.0,1.0,2.0,1.0,128.0,0.0,3.0,4.0,4.0,37.3,140.28092152170035,1.6619631243467547,550.0448238342481
H-81,Cholesterol  ,"InChI=1S/C27H46O/c1-18(2)7-6-8-19(3)23-11-12-24-22-10-9-20-17-21(28)13-15-26(20,4)25(22)14-16-27(23,24)5/h9,18-19,21-25,28H,6-8,10-17H2,1-5H3",HVYWMOMLDIMFJA-UHFFFAOYSA-N,CC(C)CCCC(C)C1CCC2C3CC=C4CC(O)CCC4(C)C3CCC12C,-7.0,0.1800000000000001,2,G3,386.6640000000002,7.388700000000009,119.05280000000008,28.0,1.0,1.0,1.0,5.0,160.0,0.0,3.0,4.0,4.0,20.23,174.30905210803618,1.4894525128431004,591.0697059458731
F-1156,Naproxen morpholinobutyl ester,"InChI=1S/C22H29NO4/c1-17(18-5-6-20-16-21(25-2)8-7-19(20)15-18)22(24)27-12-4-3-9-23-10-13-26-14-11-23/h5-8,15-17H,3-4,9-14H2,1-2H3",FOJQWBARRQHNJT-UHFFFAOYSA-N,COc1ccc2cc(C(C)C(=O)OCCCCN3CCOCC3)ccc2c1,-3.7,0.0,1,G1,371.47700000000015,3.6075000000000026,106.36700000000006,27.0,5.0,0.0,5.0,8.0,146.0,2.0,1.0,1.0,3.0,48.0,160.74853332923,1.454939352701082,755.0612298713637
G-1047,RTI 7,"InChI=1S/C16H14FNO/c17-9-10-18-15-8-4-2-6-13(15)11-12-5-1-3-7-14(12)16(18)19/h1-8H,9-11H2",SYGHQFHDDIIPNX-UHFFFAOYSA-N,O=C1c2ccccc2Cc2ccccc2N1CCF,-3.535,0.6319999999999997,2,G2,255.29199999999997,3.2071000000000023,73.34150000000002,19.0,1.0,0.0,3.0,2.0,96.0,2.0,0.0,1.0,3.0,20.31,111.0293258027916,2.1831182136321763,623.6509276194483
A-4260,1-benzylpiperidin-4-one,"InChI=1S/C12H15NO/c14-12-6-8-13(9-7-12)10-11-4-2-1-3-5-11/h1-5H,6-10H2",SJZKULRDWHPHGG-UHFFFAOYSA-N,O=C1CCN(Cc2ccccc2)CC1,-1.0169828584,0.0,1,G1,189.25800000000004,1.8515,55.96000000000003,14.0,2.0,0.0,2.0,2.0,74.0,1.0,1.0,1.0,2.0,20.31,84.53658042259454,1.8946821990226328,297.3575848525983
F-121,"1,5-dimethyl-2,4,6,8-tetrazabicyclo[3.3.1]nonane-3,7-dione","InChI=1S/C7H12N4O2/c1-6-3-7(2,10-4(12)8-6)11-5(13)9-6/h3H2,1-2H3,(H2,8,10,12)(H2,9,11,13)",QFMIBLGAFJGHNN-UHFFFAOYSA-N,CC12CC(C)(NC(=O)N1)NC(=O)N2,-2.09,0.0,1,G1,184.199,-0.5654999999999994,44.76180000000001,13.0,2.0,4.0,6.0,0.0,72.0,0.0,2.0,2.0,2.0,82.26,75.43973434167044,2.3150933251114965,244.21712959883016
A-2363,2-azabicyclo[2.2.1]hept-5-en-3-one,"InChI=1S/C6H7NO/c8-6-4-1-2-5(3-4)7-6/h1-2,4-5H,3H2,(H,7,8)",DDUFYKNOXPZZIW-UHFFFAOYSA-N,O=C1NC2C=CC1C2,0.9361608079,0.0,1,G1,109.128,0.0608999999999997,29.17769999999999,8.0,1.0,1.0,2.0,0.0,42.0,0.0,1.0,2.0,2.0,29.1,47.57408054422168,2.3488387634327257,161.91147050652935
B-875,phenanthridine,InChI=1S/C13H9N/c1-2-6-11-10(5-1)9-14-13-8-4-3-7-12(11)13/h1-9H,RDOWQLZANAYVLL-UHFFFAOYSA-N,c1ccc2c(c1)cnc1ccccc12,-2.7763,0.0,1,G1,179.22199999999998,3.388000000000001,59.249000000000024,14.0,1.0,0.0,1.0,0.0,66.0,3.0,0.0,0.0,3.0,12.89,82.0143801639139,2.610318687415942,544.2063511621126