ID,Name,InChI,InChIKey,SMILES,Solubility,SD,Occurrences,Group,MolWt,MolLogP,MolMR,HeavyAtomCount,NumHAcceptors,NumHDonors,NumHeteroatoms,NumRotatableBonds,NumValenceElectrons,NumAromaticRings,NumSaturatedRings,NumAliphaticRings,RingCount,TPSA,LabuteASA,BalabanJ,BertzCT
A-3941,"2-[[4,5-dihydro-3-methyl-5-oxo-1-[4-[[2-(sulphooxy)ethyl]sulphonyl]phenyl]-1H-pyrazol-4-yl]azo]naphthalene-1,5-disulphonic acid, potassium sodium salt","InChI=1S/C22H22N4O13S4.K.Na/c1-13-20(22(27)26(25-13)14-5-7-15(8-6-14)40(28,29)12-11-39-43(36,37)38)24-23-18-10-9-16-17(21(18)42(33,34)35)3-2-4-19(16)41(30,31)32;;/h2-10,20,22,27H,11-12H2,1H3,(H,30,31,32)(H,33,34,35)(H,36,37,38);;/q;2*+1/p-2",GARUHJAOVJVADA-UHFFFAOYSA-L,CC1=NN(c2ccc(S(=O)(=O)CCOS(=O)(=O)[O-])cc2)C(O)C1N=Nc1ccc2c(S(=O)(=O)[O-])cccc2c1S(=O)(=O)O.[K+].[Na+],-0.3928398265,0.0,1,G1,738.7730000000003,-5.0840999999999905,145.76859999999982,45.0,16.0,2.0,23.0,10.0,232.0,3.0,0.0,1.0,4.0,272.68999999999994,322.39010699867794,3.5266618385583013e-06,2093.78037744112
A-2283,"1,3,5-tris[[(2R)-oxiran-2-yl]methyl]-1,3,5-triazinane-2,4,6-trione","InChI=1S/C12H15N3O6/c16-10-13(1-7-4-19-7)11(17)15(3-9-6-21-9)12(18)14(10)2-8-5-20-8/h7-9H,1-6H2/t7-,8-,9-/m1/s1",OUPZKGBUJRBPGC-IWSPIJDZSA-N,O=c1n(C[C@@H]2CO2)c(=O)n(C[C@@H]2CO2)c(=O)n1C[C@@H]1CO1,-2.4688253265,0.0,1,G1,297.267,-2.6318999999999972,68.44200000000002,21.0,9.0,0.0,9.0,6.0,114.0,1.0,3.0,3.0,4.0,103.59,117.81244907975622,1.808249375389979,604.5390164761754
A-3206,"1,3-dimethyl-3,7-dihydro-1H-purine-2,6-dione","InChI=1S/C7H8N4O2/c1-10-5-4(8-3-9-5)6(12)11(2)7(10)13/h3H,1-2H3,(H,8,9)",ZFXYFBGIUFBOJW-UHFFFAOYSA-N,Cn1c(=O)c2[nH]cnc2n(C)c1=O,-1.3525852601,0.0169291336,2,G3,180.16699999999997,-1.039700000000001,46.57570000000001,13.0,5.0,1.0,6.0,0.0,68.0,2.0,0.0,0.0,2.0,72.68,72.45404341715741,3.21185381303522,574.1705593822571
B-300,8-chlorotheophylline,"InChI=1S/C7H7ClN4O2/c1-11-4-3(9-6(8)10-4)5(13)12(2)7(11)14/h1-2H3,(H,9,10)",RYIGNEOBDRVTHA-UHFFFAOYSA-N,Cn1c(=O)c2[nH]c(Cl)nc2n(C)c1=O,-1.5075,0.0,1,G1,214.612,-0.3863000000000005,51.5857,14.0,5.0,1.0,7.0,0.0,74.0,2.0,0.0,0.0,2.0,72.68,82.75730964403908,3.1743854173727075,620.8771075398187
B-1311,proxyphylline,"InChI=1S/C10H14N4O3/c1-6(15)4-14-5-11-8-7(14)9(16)13(3)10(17)12(8)2/h5-6,15H,4H2,1-3H3",KYHQZNGJUGFTGR-UHFFFAOYSA-N,CC(O)Cn1cnc2c1c(=O)n(C)c(=O)n2C,0.623,0.0,1,G1,238.247,-1.185499999999999,61.895800000000015,17.0,7.0,1.0,7.0,2.0,92.0,2.0,0.0,0.0,2.0,82.04999999999998,96.55307499913856,2.858792204521248,677.1414431382049
B-1522,"1h-purine-2,6-dione, 3,7-dihydro-1,3,8-trimethyl","InChI=1S/C8H10N4O2/c1-4-9-5-6(10-4)11(2)8(14)12(3)7(5)13/h1-3H3,(H,9,10)",WZBKGWBHAPBSBF-UHFFFAOYSA-N,Cc1nc2c([nH]1)c(=O)n(C)c(=O)n2C,-0.7276,0.0,1,G1,194.194,-0.7312800000000006,51.31270000000001,14.0,5.0,1.0,6.0,0.0,74.0,2.0,0.0,0.0,2.0,72.68,78.81898553155402,3.1743854173727075,616.5285919942219
B-1523,"1h-purine-2,6-dione, 3,7-dihydro-1,3,7,8-tetrame",InChI=1S/C9H12N4O2/c1-5-10-7-6(11(5)2)8(14)13(4)9(15)12(7)3/h1-4H3,LFHHOHMIVKIHMG-UHFFFAOYSA-N,Cc1nc2c(c(=O)n(C)c(=O)n2C)n1C,-1.4493,0.0,1,G1,208.221,-0.7208800000000009,55.93300000000002,15.0,6.0,0.0,6.0,0.0,80.0,2.0,0.0,0.0,2.0,61.82,85.39389913254594,3.225307810144424,659.2728980586447
B-1583,"1h-purine-2,6-dione, 7-butyl-3,7-dihydro-1,3-dim","InChI=1S/C11H16N4O2/c1-4-5-6-15-7-12-9-8(15)10(16)14(3)11(17)13(9)2/h7H,4-6H2,1-3H3",CPRWWXKLQNLTSZ-UHFFFAOYSA-N,CCCCn1cnc2c1c(=O)n(C)c(=O)n2C,-1.8069,0.0,1,G1,236.275,0.2338,65.12300000000002,17.0,6.0,0.0,6.0,3.0,92.0,2.0,0.0,0.0,2.0,61.82,98.12378336133916,2.7663397915684915,662.3868721359065
B-1624,1-butyl theobromine,"InChI=1S/C11H16N4O2/c1-4-5-6-15-10(16)8-9(12-7-13(8)2)14(3)11(15)17/h7H,4-6H2,1-3H3",ZCUPBJOZMPROIJ-UHFFFAOYSA-N,CCCCn1c(=O)c2c(ncn2C)n(C)c1=O,-1.6252,0.0,1,G1,236.275,0.2337999999999997,65.12300000000003,17.0,6.0,0.0,6.0,3.0,92.0,2.0,0.0,0.0,2.0,61.82,98.12378336133916,2.8009931819001164,662.3868721359065
B-2151,"1h-purine-2,6-dione, 8-ethyl-3,7-dihydro-1,3,7-t","InChI=1S/C10H14N4O2/c1-5-6-11-8-7(12(6)2)9(15)14(4)10(16)13(8)3/h5H2,1-4H3",DRWCPERSPGFNIK-UHFFFAOYSA-N,CCc1nc2c(c(=O)n(C)c(=O)n2C)n1C,-1.5687,0.0,1,G1,222.24799999999996,-0.4669000000000001,60.57400000000002,16.0,6.0,0.0,6.0,1.0,86.0,2.0,0.0,0.0,2.0,61.82,91.75884124694254,3.1253965731057147,674.6545748369492
B-2175,"1h-purine-1-acetic acid, 2,3,6,7-tetrahydro-3,7-","InChI=1S/C9H10N4O4/c1-11-4-10-7-6(11)8(16)13(3-5(14)15)9(17)12(7)2/h4H,3H2,1-2H3,(H,14,15)/p-1",YCTSCXLOPJCPDH-UHFFFAOYSA-M,Cn1cnc2c1c(=O)n(CC(=O)[O-])c(=O)n2C,-1.3769,0.0,1,G1,237.1949999999999,-2.816399999999999,55.22200000000001,17.0,8.0,0.0,8.0,2.0,90.0,2.0,0.0,0.0,2.0,101.95,94.34965498478572,2.943934293328045,720.8966854642283
B-2249,pentoxifylline,"InChI=1S/C13H18N4O3/c1-9(18)6-4-5-7-17-12(19)10-11(14-8-15(10)2)16(3)13(17)20/h8H,4-7H2,1-3H3",BYPFEZZEUUWMEJ-UHFFFAOYSA-N,CC(=O)CCCCn1c(=O)c2c(ncn2C)n(C)c1=O,-0.5579999999999999,0.0,1,G1,278.31199999999995,0.1929999999999996,74.74700000000003,20.0,7.0,0.0,7.0,5.0,108.0,2.0,0.0,0.0,2.0,78.89,115.01518969017614,2.381621797689879,766.2398536300291
B-2625,"1h-purine-2,6-dione, 7-ethyl-3,7-dihydro-1,3-dim","InChI=1S/C9H12N4O2/c1-4-13-5-10-7-6(13)8(14)12(3)9(15)11(7)2/h5H,4H2,1-3H3",RPOQNHMXOPWCEK-UHFFFAOYSA-N,CCn1cnc2c1c(=O)n(C)c(=O)n2C,-0.7544,0.0,1,G1,208.221,-0.5464000000000002,55.88900000000001,15.0,6.0,0.0,6.0,1.0,80.0,2.0,0.0,0.0,2.0,61.82,85.39389913254594,3.112238371078967,631.8253673508915
B-2628,"1h-purine-2,6-dione, 3,7-dihydro-7-(3-hydroxypro","InChI=1S/C10H14N4O3/c1-12-8-7(9(16)13(2)10(12)17)14(6-11-8)4-3-5-15/h6,15H,3-5H2,1-2H3",QCGRMMZPZDAITA-UHFFFAOYSA-N,Cn1c(=O)c2c(ncn2CCCO)n(C)c1=O,-0.1551,0.0,1,G1,238.24699999999993,-1.1839000000000002,61.91780000000002,17.0,7.0,1.0,7.0,3.0,92.0,2.0,0.0,0.0,2.0,82.05000000000001,96.55307499913856,2.766339791568492,664.4664514898798
B-2741,cafaminol,"InChI=1S/C11H17N5O3/c1-13(5-6-17)10-12-8-7(14(10)2)9(18)16(4)11(19)15(8)3/h17H,5-6H2,1-4H3",ZGNRRVAPHPANFI-UHFFFAOYSA-N,CN(CCO)c1nc2c(c(=O)n(C)c(=O)n2C)n1C,-0.6488,0.0,1,G1,267.289,-1.600799999999999,71.55180000000003,19.0,8.0,1.0,8.0,3.0,104.0,2.0,0.0,0.0,2.0,85.28999999999999,108.67785078373852,2.8473944073478066,739.3393312866176
B-2869,"1h-purine-2,6-dione, 1-ethyl-3,7-dihydro-3,7-dim","InChI=1S/C9H12N4O2/c1-4-13-8(14)6-7(10-5-11(6)2)12(3)9(13)15/h5H,4H2,1-3H3",KRVVZPXPQUPXJE-UHFFFAOYSA-N,CCn1c(=O)c2c(ncn2C)n(C)c1=O,-0.7190000000000001,0.0,1,G1,208.221,-0.5464000000000007,55.889000000000024,15.0,6.0,0.0,6.0,1.0,80.0,2.0,0.0,0.0,2.0,61.82,85.39389913254594,3.132031241976869,631.8253673508914
B-2989,propentofylline,"InChI=1S/C15H22N4O3/c1-4-8-18-10-16-13-12(18)14(21)19(15(22)17(13)3)9-6-5-7-11(2)20/h10H,4-9H2,1-3H3",RBQOQRRFDPXAGN-UHFFFAOYSA-N,CCCn1cnc2c1c(=O)n(CCCCC(C)=O)c(=O)n2C,-0.9811,0.0,1,G1,306.366,1.0659999999999998,84.05700000000003,22.0,7.0,0.0,7.0,7.0,120.0,2.0,0.0,0.0,2.0,78.89,127.74507391896938,2.409663182305652,797.446067398739
B-3089,"1h-purine-2,6-dione, 3,7-dihydro-3,7-dimethyl-1-","InChI=1S/C10H14N4O2/c1-4-5-14-9(15)7-8(11-6-12(7)2)13(3)10(14)16/h6H,4-5H2,1-3H3",XJKSERUTELYNMR-UHFFFAOYSA-N,CCCn1c(=O)c2c(ncn2C)n(C)c1=O,-1.2082,0.0,1,G1,222.24799999999996,-0.1563000000000005,60.50600000000003,16.0,6.0,0.0,6.0,2.0,86.0,2.0,0.0,0.0,2.0,61.82,91.75884124694257,2.9780709670240615,647.1083863008887
B-4480,theobromine,"InChI=1S/C7H8N4O2/c1-10-3-8-5-4(10)6(12)9-7(13)11(5)2/h3H,1-2H3,(H,9,12,13)",YAPQBXQYLJRXSA-UHFFFAOYSA-N,Cn1cnc2c1c(=O)[nH]c(=O)n2C,-2.7372,0.3012369623734775,4,G5,180.16699999999997,-1.0397,46.5757,13.0,5.0,1.0,6.0,0.0,68.0,2.0,0.0,0.0,2.0,72.68,72.4540434171574,3.178460985506274,574.1705593822572
C-533,caffeine,"InChI=1S/C8H10N4O2/c1-10-4-9-6-5(10)7(13)12(3)8(14)11(6)2/h4H,1-3H3",RYYVLZVUVIJVGH-UHFFFAOYSA-N,Cn1c(=O)c2c(ncn2C)n(C)c1=O,-0.91,0.0344201635493308,4,G5,194.194,-1.0293,51.19600000000001,14.0,6.0,0.0,6.0,0.0,74.0,2.0,0.0,0.0,2.0,61.82,79.02895701814933,3.221281081084588,616.5285919942219
C-2002,7-hydroxymethyltheophylline,"InChI=1S/C8H10N4O3/c1-10-6-5(12(4-13)3-9-6)7(14)11(2)8(10)15/h3,13H,4H2,1-2H3",QAPJAMJGLYYNHX-UHFFFAOYSA-N,Cn1c(=O)c2c(ncn2CO)n(C)c1=O,-0.41,0.0,1,G1,210.193,-1.6165000000000005,52.43380000000002,15.0,7.0,1.0,7.0,1.0,80.0,2.0,0.0,0.0,2.0,82.05000000000001,83.82319077034533,3.112238371078967,633.5998048617088
C-2015,7-propyltheophylline,"InChI=1S/C10H14N4O2/c1-4-5-14-6-11-8-7(14)9(15)13(3)10(16)12(8)2/h6H,4-5H2,1-3H3",HGFWMGARSDHJFP-UHFFFAOYSA-N,CCCn1cnc2c1c(=O)n(C)c(=O)n2C,0.02,0.0,1,G1,222.24799999999996,-0.1563000000000001,60.50600000000002,16.0,6.0,0.0,6.0,2.0,86.0,2.0,0.0,0.0,2.0,61.82,91.75884124694257,2.9477693793520534,647.1083863008886
C-2061,7-acetyltheophylline,"InChI=1S/C9H10N4O3/c1-5(14)13-4-10-7-6(13)8(15)12(3)9(16)11(7)2/h4H,1-3H3",RCDRLZYAKDYXMM-UHFFFAOYSA-N,CC(=O)n1cnc2c1c(=O)n(C)c(=O)n2C,-1.4,0.0,1,G1,222.204,-0.9062000000000004,56.51550000000002,16.0,7.0,0.0,7.0,0.0,84.0,2.0,0.0,0.0,2.0,78.89,89.55542123258971,3.1295894702167626,703.8380017877919
C-2091,7-propanoyltheophylline,"InChI=1S/C10H12N4O3/c1-4-6(15)14-5-11-8-7(14)9(16)13(3)10(17)12(8)2/h5H,4H2,1-3H3",ZPUJWKXAFJEHDZ-UHFFFAOYSA-N,CCC(=O)n1cnc2c1c(=O)n(C)c(=O)n2C,-1.1,0.0,1,G1,236.23099999999997,-0.5161,61.132500000000014,17.0,7.0,0.0,7.0,1.0,90.0,2.0,0.0,0.0,2.0,78.89000000000001,95.9203633469863,3.0100778748302632,719.4518420261719
C-2114,7-methoxycarbonyltheophylline,"InChI=1S/C9H10N4O4/c1-11-6-5(7(14)12(2)8(11)15)13(4-10-6)9(16)17-3/h4H,1-3H3",JDORMWPGTNFOBC-UHFFFAOYSA-N,COC(=O)n1cnc2c1c(=O)n(C)c(=O)n2C,-1.24,0.0,1,G1,238.20299999999995,-0.9518000000000006,58.01800000000001,17.0,8.0,0.0,8.0,0.0,90.0,2.0,0.0,0.0,2.0,88.12,94.6689664620966,3.0100778748302632,720.8966854642281
C-2117,7-theophyllinylmethyl  acetate;  7-(acetoxymethyl)theophylline,"InChI=1S/C10H12N4O4/c1-6(15)18-5-14-4-11-8-7(14)9(16)13(3)10(17)12(8)2/h4H,5H2,1-3H3",BKXGMMLAXFAIGQ-UHFFFAOYSA-N,CC(=O)OCn1cnc2c1c(=O)n(C)c(=O)n2C,-1.83,0.0,1,G1,252.22999999999996,-1.0457,61.98100000000002,18.0,8.0,0.0,8.0,2.0,96.0,2.0,0.0,0.0,2.0,88.12,101.0339085764932,2.696240359936178,736.6412408920518
C-2127,7-butyryltheophylline;  7-butanoyltheophylline,"InChI=1S/C11H14N4O3/c1-4-5-7(16)15-6-12-9-8(15)10(17)14(3)11(18)13(9)2/h6H,4-5H2,1-3H3",MZWAEHYAKJOENW-UHFFFAOYSA-N,CCCC(=O)n1cnc2c1c(=O)n(C)c(=O)n2C,-1.53,0.0,1,G1,250.258,-0.1260000000000001,65.74950000000001,18.0,7.0,0.0,7.0,2.0,96.0,2.0,0.0,0.0,2.0,78.89000000000001,102.28530546138292,2.8595995031135386,735.0518865337516
C-2138,7-(ethoxycarboxymethyl)theophylline;  7-(ethoxycarbonyloxymethyl)theophylline,"InChI=1S/C11H14N4O5/c1-4-19-11(18)20-6-15-5-12-8-7(15)9(16)14(3)10(17)13(8)2/h5H,4,6H2,1-3H3",CRROIRSDBVLXGH-UHFFFAOYSA-N,CCOC(=O)OCn1cnc2c1c(=O)n(C)c(=O)n2C,-1.86,0.0,1,G1,282.25600000000003,-0.4357,68.32200000000002,20.0,9.0,0.0,9.0,3.0,108.0,2.0,0.0,0.0,2.0,97.35,112.51239592039668,2.4462441577416625,769.4370691885798
C-2141,7-(ethoxycarbonyl)theophylline,"InChI=1S/C10H12N4O4/c1-4-18-10(17)14-5-11-7-6(14)8(15)13(3)9(16)12(7)2/h5H,4H2,1-3H3",QSIIYGLZPGMUMS-UHFFFAOYSA-N,CCOC(=O)n1cnc2c1c(=O)n(C)c(=O)n2C,-1.65,0.0,1,G1,252.23,-0.5617000000000001,62.63500000000001,18.0,8.0,0.0,8.0,1.0,96.0,2.0,0.0,0.0,2.0,88.12,101.0339085764932,2.8595995031135386,736.6412408920518
C-2145,7-(propionyloxymethyl)theophylline;  7-(propanoyloxymethyl)theophylline,"InChI=1S/C11H14N4O4/c1-4-7(16)19-6-15-5-12-9-8(15)10(17)14(3)11(18)13(9)2/h5H,4,6H2,1-3H3",IMLOLBJKVGTVRZ-UHFFFAOYSA-N,CCC(=O)OCn1cnc2c1c(=O)n(C)c(=O)n2C,-2.3,0.0,1,G1,266.257,-0.6555999999999995,66.59800000000001,19.0,8.0,0.0,8.0,3.0,102.0,2.0,0.0,0.0,2.0,88.12,107.39885069088982,2.57158370313781,752.3665624590808
C-2160,7-pentanoyltheophylline,"InChI=1S/C12H16N4O3/c1-4-5-6-8(17)16-7-13-10-9(16)11(18)15(3)12(19)14(10)2/h7H,4-6H2,1-3H3",SJVQUFBQNJUYFR-UHFFFAOYSA-N,CCCCC(=O)n1cnc2c1c(=O)n(C)c(=O)n2C,-2.12,0.0,1,G1,264.28499999999997,0.2640999999999998,70.36650000000002,19.0,7.0,0.0,7.0,3.0,102.0,2.0,0.0,0.0,2.0,78.89000000000001,108.65024757577952,2.701133867156717,750.6458727532737
C-2177,7-(pivaloyloxymethyl)theophylline (viii),"InChI=1S/C13H18N4O4/c1-13(2,3)11(19)21-7-17-6-14-9-8(17)10(18)16(5)12(20)15(9)4/h6H,7H2,1-5H3",BFABOEKGZASJFN-UHFFFAOYSA-N,Cn1c(=O)c2c(ncn2COC(=O)C(C)(C)C)n(C)c1=O,-2.17,0.0,1,G1,294.311,-0.0195000000000009,75.76200000000003,21.0,8.0,0.0,8.0,2.0,114.0,2.0,0.0,0.0,2.0,88.12,120.128734919683,2.464700963283148,819.5246687254522
C-2184,7-(propoxycarbonyl)theophylline,"InChI=1S/C11H14N4O4/c1-4-5-19-11(18)15-6-12-8-7(15)9(16)14(3)10(17)13(8)2/h6H,4-5H2,1-3H3",QIBCKFKIAKARGI-UHFFFAOYSA-N,CCCOC(=O)n1cnc2c1c(=O)n(C)c(=O)n2C,-1.45,0.0,1,G1,266.25699999999995,-0.1715999999999999,67.25200000000001,19.0,8.0,0.0,8.0,2.0,102.0,2.0,0.0,0.0,2.0,88.12,107.39885069088982,2.701133867156717,752.3665624590808
C-2191,7-(butyryloxymethyl)theophylline;  7-(butanoyloxymethyl)theophylline,"InChI=1S/C12H16N4O4/c1-4-5-8(17)20-7-16-6-13-10-9(16)11(18)15(3)12(19)14(10)2/h6H,4-5,7H2,1-3H3",BCXKOIICQXXQJZ-UHFFFAOYSA-N,CCCC(=O)OCn1cnc2c1c(=O)n(C)c(=O)n2C,-1.86,0.0,1,G1,280.284,-0.2655,71.21500000000002,20.0,8.0,0.0,8.0,4.0,108.0,2.0,0.0,0.0,2.0,88.12,113.7637928052864,2.4462441577416625,768.080907459373
C-2204,7-(butoxycarbonyl)theophylline,"InChI=1S/C12H16N4O4/c1-4-5-6-20-12(19)16-7-13-9-8(16)10(17)15(3)11(18)14(9)2/h7H,4-6H2,1-3H3",NVWQRLZUBQMAOX-UHFFFAOYSA-N,CCCCOC(=O)n1cnc2c1c(=O)n(C)c(=O)n2C,-1.93,0.0,1,G1,280.284,0.2184999999999999,71.86900000000001,20.0,8.0,0.0,8.0,3.0,108.0,2.0,0.0,0.0,2.0,88.12,113.7637928052864,2.5475302511695155,768.080907459373
C-2205,7-(pentanoyloxymethyl)theophylline,"InChI=1S/C13H18N4O4/c1-4-5-6-9(18)21-8-17-7-14-11-10(17)12(19)16(3)13(20)15(11)2/h7H,4-6,8H2,1-3H3",YWTLHUJMKYJQNI-UHFFFAOYSA-N,CCCCC(=O)OCn1cnc2c1c(=O)n(C)c(=O)n2C,-2.37,0.0,1,G1,294.31100000000004,0.1246,75.83200000000002,21.0,8.0,0.0,8.0,5.0,114.0,2.0,0.0,0.0,2.0,88.12,120.128734919683,2.3268563091254255,783.790772878825
C-2217,7-(hexanoyloxymethyl)theophylline,"InChI=1S/C14H20N4O4/c1-4-5-6-7-10(19)22-9-18-8-15-12-11(18)13(20)17(3)14(21)16(12)2/h8H,4-7,9H2,1-3H3",UXSMYWBTLMYEGK-UHFFFAOYSA-N,CCCCCC(=O)OCn1cnc2c1c(=O)n(C)c(=O)n2C,-2.64,0.0,1,G1,308.338,0.5146999999999997,80.44900000000003,22.0,8.0,0.0,8.0,6.0,120.0,2.0,0.0,0.0,2.0,88.12,126.4936770340796,2.2164928705473557,799.5013449262239
C-2241,7-(hexyloxycarbonyl)theophylline,"InChI=1S/C14H20N4O4/c1-4-5-6-7-8-22-14(21)18-9-15-11-10(18)12(19)17(3)13(20)16(11)2/h9H,4-8H2,1-3H3",UORJFFDRYWJWQH-UHFFFAOYSA-N,CCCCCCOC(=O)n1cnc2c1c(=O)n(C)c(=O)n2C,-3.0,0.0,1,G1,308.3380000000001,0.9986999999999996,81.10300000000004,22.0,8.0,0.0,8.0,5.0,120.0,2.0,0.0,0.0,2.0,88.12,126.4936770340796,2.2763049018631247,799.5013449262239
C-2263,theophyllin-7-ylmethyl octanoate;  7-(octanoyloxymethyl)theophylline,"InChI=1S/C16H24N4O4/c1-4-5-6-7-8-9-12(21)24-11-20-10-17-14-13(20)15(22)19(3)16(23)18(14)2/h10H,4-9,11H2,1-3H3",GZVOWHYYFUOPAE-UHFFFAOYSA-N,CCCCCCCC(=O)OCn1cnc2c1c(=O)n(C)c(=O)n2C,-3.45,0.0,1,G1,336.39200000000005,1.2949,89.68300000000004,24.0,8.0,0.0,8.0,8.0,132.0,2.0,0.0,0.0,2.0,88.12,139.22356126287286,2.0259034490108947,830.9405942045671
C-2351,"theophyllin-7-ylmethyl 3-(n,n-diethylcarbamoyl)propionate; n,n-diethylsuccinamic acid theophyllin-7-ylmethyl ester","InChI=1S/C16H23N5O5/c1-5-20(6-2)11(22)7-8-12(23)26-10-21-9-17-14-13(21)15(24)19(4)16(25)18(14)3/h9H,5-8,10H2,1-4H3",GEUZJBMJDHYJEC-UHFFFAOYSA-N,CCN(CC)C(=O)CCC(=O)OCn1cnc2c1c(=O)n(C)c(=O)n2C,-1.14,0.0,1,G1,365.3900000000001,-0.4169999999999982,93.46900000000004,26.0,9.0,0.0,10.0,7.0,142.0,2.0,0.0,0.0,2.0,108.43,149.14491703312,2.065077795150357,934.8791508047734
E-866,Dyphylline,"InChI=1S/C10H14N4O4/c1-12-8-7(9(17)13(2)10(12)18)14(5-11-8)3-6(16)4-15/h5-6,15-16H,3-4H2,1-2H3",KSCFJBIXMNOVSH-UHFFFAOYSA-N,Cn1c(=O)c2c(ncn2CC(O)CO)n(C)c1=O,-0.17,0.1436,2,G3,254.246,-2.213099999999999,63.30760000000002,18.0,8.0,2.0,8.0,3.0,98.0,2.0,0.0,0.0,2.0,102.28,101.34730875133458,2.7364643675188978,696.1911960747241
A-1544,"bis(2,2,6,6-tetramethylpiperidin-4-yl) decanedioate","InChI=1S/C28H52N2O4/c1-25(2)17-29-18-26(3,4)23(25)33-21(31)15-13-11-9-10-12-14-16-22(32)34-24-27(5,6)19-30-20-28(24,7)8/h23-24,29-30H,9-20H2,1-8H3",RWMYPXKVMUFMKS-UHFFFAOYSA-N,CC1(C)CNCC(C)(C)C1OC(=O)CCCCCCCCC(=O)OC1C(C)(C)CNCC1(C)C,-4.4077469895,0.0,1,G1,480.7340000000003,5.242000000000004,137.5594,34.0,6.0,2.0,6.0,11.0,198.0,0.0,2.0,2.0,2.0,76.66,208.2308848357969,1.5706657102257011,593.8935942196969
A-2456,"A mixture of: bis(2,2,6,6-tetramethyl-1-octyloxypiperidin-4-yl)-1,10-decanedioate; 1,8-bis[(2,2,6,6-tetramethyl-4-((2,2,6,6-tetramethyl-1-octyloxypiperidin-4-yl)-decan-1,10-dioyl)piperidin-1-yl)oxy]octane","InChI=1S/C28H52N2O4.C8H18.C4H10O2/c1-25(2)17-21(18-26(3,4)29-25)33-23(31)15-13-11-9-10-12-14-16-24(32)34-22-19-27(5,6)30-28(7,8)20-22;1-3-5-7-8-6-4-2;1-4(2,3)6-5/h21-22,29-30H,9-20H2,1-8H3;3-8H2,1-2H3;5H,1-3H3",FNRJJSFGQVCXEK-UHFFFAOYSA-N,CC(C)(C)OO.CC1(C)CC(OC(=O)CCCCCCCCC(=O)OC2CC(C)(C)NC(C)(C)C2)CC(C)(C)N1.CCCCCCCC,-5.0575951101,0.0,1,G1,685.0880000000002,10.453299999999995,200.26819999999927,48.0,8.0,3.0,8.0,16.0,286.0,0.0,2.0,2.0,2.0,106.12,296.45892681305577,1.3132021482135702e-06,781.4456172001321
B-1303,"benzenesulfonic acid, 4-methyl-, 2-methylphenyl","InChI=1S/C14H14O3S/c1-11-7-9-13(10-8-11)18(15,16)17-14-6-4-3-5-12(14)2/h3-10H,1-2H3",WBKWVLAHWVFXKM-UHFFFAOYSA-N,Cc1ccc(S(=O)(=O)Oc2ccccc2C)cc1,-3.9417,0.0,1,G1,262.33,3.0711400000000015,70.17180000000003,18.0,3.0,0.0,4.0,3.0,94.0,2.0,0.0,0.0,2.0,43.370000000000005,107.1663290417057,2.332705665940394,642.9942511477957
F-869,"3,3-dimethyl-6-[[2-(4-methylphenoxy)acetyl]amino]-7-oxo-4-thia-1-azabicyclo[3.2.0]heptane-2-carboxylic acid","InChI=1S/C17H20N2O5S/c1-9-4-6-10(7-5-9)24-8-11(20)18-12-14(21)19-13(16(22)23)17(2,3)25-15(12)19/h4-7,12-13,15H,8H2,1-3H3,(H,18,20)(H,22,23)",PSHRTKHMFMNJFD-UHFFFAOYSA-N,Cc1ccc(OCC(=O)NC2C(=O)N3C2SC(C)(C)C3C(=O)O)cc1,-3.15,0.0,1,G1,364.4230000000001,1.0055199999999993,92.33250000000004,25.0,5.0,2.0,8.0,5.0,134.0,1.0,2.0,2.0,3.0,95.94,149.259255231812,1.573386107958276,718.2533209189623
F-1199,"3,3-dimethyl-7-oxo-6-[[2-(phenoxy)acetyl]amino]-4-thia-1-azabicyclo[3.2.0]heptane-2-carboxylic acid","InChI=1S/C16H18N2O5S/c1-16(2)12(15(21)22)18-13(20)11(14(18)24-16)17-10(19)8-23-9-6-4-3-5-7-9/h3-7,11-12,14H,8H2,1-2H3,(H,17,19)(H,21,22)",BPLBGHOLXOTWMN-UHFFFAOYSA-N,CC1(C)SC2C(NC(=O)COc3ccccc3)C(=O)N2C1C(=O)O,-2.81,0.1699999999999999,2,G3,350.3960000000001,0.6970999999999998,87.59550000000004,24.0,5.0,2.0,8.0,5.0,128.0,1.0,2.0,2.0,3.0,95.94,142.8943131174155,1.585949621534698,678.3051601160009
B-990,iridomyrmecin,"InChI=1S/C10H16O2/c1-6-3-4-8-7(2)10(11)12-5-9(6)8/h6-9H,3-5H2,1-2H3",LYEFRAMOOLOUKA-UHFFFAOYSA-N,CC1CCC2C(C)C(=O)OCC12,-1.9249,0.0,1,G1,168.23599999999996,1.8416,45.50100000000002,12.0,2.0,0.0,2.0,0.0,68.0,0.0,2.0,2.0,2.0,26.3,73.28713507989119,2.136193163680383,200.0152602798213
A-2179,"Decahydrospiro[furan-2(3H),5'-[4,7]methano[5h]indene]","InChI=1S/C13H20O/c1-3-10-9-7-12(11(10)4-1)13(8-9)5-2-6-14-13/h9-12H,1-8H2",JDJZAKLOMAHING-UHFFFAOYSA-N,C1CC2C3CC(C2C1)C1(CCCO1)C3,-5.941561120199999,0.0,1,G1,192.30199999999996,2.9917000000000016,54.962000000000046,14.0,1.0,0.0,1.0,0.0,78.0,0.0,4.0,4.0,4.0,9.23,86.20877701597881,1.6878333465948456,253.9611776897996
B-2130,"benzeneacetic acid, -[(sulfooxy)methyl]-, 8-meth","InChI=1S/C17H23NO6S/c1-18-13-7-8-14(18)10-15(9-13)24-17(19)16(11-23-25(20,21)22)12-5-3-2-4-6-12/h2-6,13-16H,7-11H2,1H3,(H,20,21,22)",GMLBHJMTVBLXLJ-UHFFFAOYSA-N,CN1C2CCC1CC(OC(=O)C(COS(=O)(=O)O)c1ccccc1)C2,-1.5675,0.0,1,G1,369.4390000000001,1.7579999999999998,90.37060000000008,25.0,6.0,1.0,8.0,6.0,138.0,1.0,2.0,2.0,3.0,93.14,147.4201901861607,1.6856181090944464,693.1080738912358
C-519,atropine;  hyoscyamine,"InChI=1S/C17H23NO3/c1-18-13-7-8-14(18)10-15(9-13)21-17(20)16(11-19)12-5-3-2-4-6-12/h2-6,13-16,19H,7-11H2,1H3",RKUNBYITZUJHSG-UHFFFAOYSA-N,CN1C2CCC1CC(OC(=O)C(CO)c1ccccc1)C2,-1.91,0.4025339185156396,3,G5,289.375,1.9309,79.95580000000005,21.0,4.0,1.0,4.0,4.0,114.0,1.0,2.0,2.0,3.0,49.77,125.26323882275126,1.632677623313254,476.06840462966727