ID,Name,InChI,InChIKey,SMILES,Solubility,SD,Occurrences,Group,MolWt,MolLogP,MolMR,HeavyAtomCount,NumHAcceptors,NumHDonors,NumHeteroatoms,NumRotatableBonds,NumValenceElectrons,NumAromaticRings,NumSaturatedRings,NumAliphaticRings,RingCount,TPSA,LabuteASA,BalabanJ,BertzCT
F-734,"16-(dimethylaminomethyl)-3-hydroxy-10,13-dimethyl-1,2,3,4,7,8,9,11,12,14,15,16-dodecahydrocyclopenta[a]phenanthren-17-one","InChI=1S/C22H35NO2/c1-21-9-7-16(24)12-15(21)5-6-17-18(21)8-10-22(2)19(17)11-14(20(22)25)13-23(3)4/h5,14,16-19,24H,6-13H2,1-4H3",JZXWQNLDFVFNTR-UHFFFAOYSA-N,CN(C)CC1CC2C3CC=C4CC(O)CCC4(C)C3CCC2(C)C1=O,-1.49,0.0,1,G1,345.5270000000001,3.6669000000000023,100.14380000000006,25.0,3.0,1.0,3.0,2.0,140.0,0.0,3.0,4.0,4.0,40.54,152.4056973063003,1.6335536532234292,596.8346398210213
H-574,Prasterone,"InChI=1S/C19H28O2/c1-18-9-7-13(20)11-12(18)3-4-14-15-5-6-17(21)19(15,2)10-8-16(14)18/h3,13-16,20H,4-11H2,1-2H3",FMGSKLZLMKYGDP-UHFFFAOYSA-N,CC12CCC3C(CC=C4CC(O)CCC43C)C1CCC2=O,-4.01,0.1961292091114086,3,G5,288.43100000000004,3.879200000000002,82.71680000000005,21.0,2.0,1.0,2.0,0.0,116.0,0.0,3.0,4.0,4.0,37.3,127.55103729290713,1.692354659363723,507.69574308017087
B-2595,"1,2,4-thiadiazolidine-3,5-dithione","InChI=1S/C2H2N2S3/c5-1-3-2(6)7-4-1/h(H2,3,4,5,6)",OTNSJAUBOYWVEB-UHFFFAOYSA-N,S=c1[nH]sc(=S)[nH]1,-1.7618,0.0,1,G1,150.253,1.86328,34.688399999999994,7.0,3.0,2.0,5.0,0.0,38.0,1.0,0.0,0.0,1.0,31.58,54.36971283515665,3.5924568113957625,215.1827403486207
C-1601,cycloserine;  4-aminoisoxazolidine-3-one,"InChI=1S/C3H6N2O2/c4-2-1-7-5-3(2)6/h2H,1,4H2,(H,5,6)",DYDCUQKUCUHJBH-UHFFFAOYSA-N,NC1CONC1=O,-0.01,0.0,1,G1,102.093,-1.624900000000001,22.0701,7.0,3.0,2.0,4.0,0.0,40.0,0.0,1.0,1.0,1.0,64.35,40.582162812742915,2.4784387393909566,92.93569696954752
A-5941,"4-[(E)-2-(1-butyl-5-cyano-2-hydroxy-4-methyl-6-oxo-1,6-dihydropyridin-3-yl)diazen-1-yl]-N-(2-ethylhexyl)benzene-1-sulfonamide","InChI=1S/C25H35N5O4S/c1-5-8-10-19(7-3)17-27-35(33,34)21-13-11-20(12-14-21)28-29-23-18(4)22(16-26)24(31)30(25(23)32)15-9-6-2/h11-14,19,27,32H,5-10,15,17H2,1-4H3",GRIJBPAOIJBRSI-UHFFFAOYSA-N,CCCCC(CC)CNS(=O)(=O)c1ccc(N=Nc2c(C)c(C#N)c(=O)n(CCCC)c2O)cc1,-8.797313426799999,0.0,1,G1,501.6530000000003,5.444200000000005,135.83929999999998,35.0,8.0,2.0,10.0,13.0,190.0,2.0,0.0,0.0,2.0,136.91,207.13305784887612,2.25262949420969,1228.4742027394573
C-998,"azo dye n2;  5-(4-chloro-2-nitrophenylazo)-1-ethyl-6-hydroxy-4-methyl-2-oxo-1,2-dihydropyridine-3-carbonitrile","InChI=1S/C15H12ClN5O4/c1-3-20-14(22)10(7-17)8(2)13(15(20)23)19-18-11-5-4-9(16)6-12(11)21(24)25/h4-6,23H,3H2,1-2H3",BBVOMHRLNCRXRH-UHFFFAOYSA-N,CCn1c(O)c(N=Nc2ccc(Cl)cc2[N+](=O)[O-])c(C)c(C#N)c1=O,-6.69,0.0,1,G1,361.7450000000002,3.730900000000003,89.77520000000003,25.0,8.0,1.0,10.0,4.0,128.0,2.0,0.0,0.0,2.0,133.87999999999997,146.12924057826834,2.6643961989149596,990.8820663941078
A-2388,"2-hydroxypropanoic acid; 5-({bis[(2-aminopropyl)amino]-1,3,5-triazin-2-yl}amino)-3-{2-[4-({4-[(4-{2-[8-({bis[(2-aminopropyl)amino]-1,3,5-triazin-2-yl}amino)-1-hydroxy-3,6-disulfonaphthalen-2-yl]diazen-1-yl}phenyl)amino]-6-{[3-(diethylamino)propyl]amino}-1,3,5-triazin-2-yl}amino)phenyl]diazen-1-yl}-4-hydroxynaphthalene-2,7-disulfonic acid","InChI=1S/C60H77N27O14S4.C3H6O3/c1-7-87(8-2)19-9-18-65-52-76-57(70-36-10-14-38(15-11-36)83-85-48-44(104(96,97)98)22-34-20-40(102(90,91)92)24-42(46(34)50(48)88)72-59-78-53(66-26-30(3)61)74-54(79-59)67-27-31(4)62)82-58(77-52)71-37-12-16-39(17-13-37)84-86-49-45(105(99,100)101)23-35-21-41(103(93,94)95)25-43(47(35)51(49)89)73-60-80-55(68-28-32(5)63)75-56(81-60)69-29-33(6)64;1-2(4)3(5)6/h10-17,20-25,30-33,88-89H,7-9,18-19,26-29,61-64H2,1-6H3,(H,90,91,92)(H,93,94,95)(H,96,97,98)(H,99,100,101)(H3,65,70,71,76,77,82)(H3,66,67,72,74,78,79)(H3,68,69,73,75,80,81);2,4H,1H3,(H,5,6)",PQKUZJNOANDNSP-UHFFFAOYSA-N,CC(O)C(=O)O.CCN(CC)CCCNc1nc(Nc2ccc(N=Nc3c(S(=O)(=O)O)cc4cc(S(=O)(=O)O)cc(Nc5nc(NCC(C)N)nc(NCC(C)N)n5)c4c3O)cc2)nc(Nc2ccc(N=Nc3c(S(=O)(=O)O)cc4cc(S(=O)(=O)O)cc(Nc5nc(NCC(C)N)nc(NCC(C)N)n5)c4c3O)cc2)n1,-0.7942190429000001,0.0,1,G1,1618.7970000000007,6.383200000000008,413.0995000000008,111.0,39.0,21.0,48.0,36.0,596.0,9.0,0.0,0.0,9.0,696.5100000000002,634.9633998668196,2.4754972168668856e-06,5014.193364429031
A-5446,sodium; 5-chloro-3-[3-methyl-5-oxido-1-(3-sulfonatophenyl)pyrazol-4-yl]diazenyl-2-oxidobenzenesulfonate; chromium(+3) cation,"InChI=1S/C16H13ClN4O8S2.Cr.Na/c1-8-14(19-18-12-5-9(17)6-13(15(12)22)31(27,28)29)16(23)21(20-8)10-3-2-4-11(7-10)30(24,25)26;;/h2-7,22-23H,1H3,(H,24,25,26)(H,27,28,29);;/q;+3;+1/p-4",HQBKGOCRCWUTTD-UHFFFAOYSA-J,Cc1nn(-c2cccc(S(=O)(=O)[O-])c2)c([O-])c1N=Nc1cc(Cl)cc(S(=O)(=O)[O-])c1[O-].[Cr+3].[Na+],-1.1331674849,0.0,1,G1,559.8410000000002,-1.7935799999999973,98.7474,33.0,12.0,0.0,17.0,5.0,167.0,3.0,0.0,0.0,3.0,203.05999999999997,225.4004633135252,2.7224981617294044e-06,1444.9203060334364
I-85,tetracycline,"InChI=1S/C22H24N2O8/c1-21(31)8-5-4-6-11(25)12(8)16(26)13-9(21)7-10-15(24(2)3)17(27)14(20(23)30)19(29)22(10,32)18(13)28/h4-6,9-10,15,25,27-28,31-32H,7H2,1-3H3,(H2,23,30)/t9-,10-,15-,21+,22-/m0/s1",OFVLGDICTFRJMM-WESIUVDSSA-N,CN(C)[C@@H]1C(O)=C(C(N)=O)C(=O)[C@@]2(O)C(O)=C3C(=O)c4c(O)cccc4[C@@](C)(O)[C@H]3C[C@@H]12,-2.93,0.0,1,G1,444.44000000000017,-0.2143999999999992,109.54090000000002,32.0,9.0,6.0,10.0,2.0,170.0,1.0,0.0,3.0,4.0,181.62,182.42923685321392,2.047922027130386,1148.5849748086323
B-3341,cyproconazole,"InChI=1S/C15H18ClN3O/c1-11(12-2-3-12)15(20,8-19-10-17-9-18-19)13-4-6-14(16)7-5-13/h4-7,9-12,20H,2-3,8H2,1H3",UFNOUKDBUJZYDE-UHFFFAOYSA-N,CC(C1CC1)C(O)(Cn1cncn1)c1ccc(Cl)cc1,-3.3189,0.0,1,G1,291.78200000000004,2.865400000000001,77.25880000000004,20.0,4.0,1.0,5.0,5.0,106.0,2.0,1.0,1.0,3.0,50.94,122.96164238979308,1.9486625438093583,565.3143788212284
B-3517,oxasulfuron,"InChI=1S/C17H18N4O6S/c1-10-7-11(2)19-16(18-10)20-17(23)21-28(24,25)14-6-4-3-5-13(14)15(22)27-12-8-26-9-12/h3-7,12H,8-9H2,1-2H3,(H2,18,19,20,21,23)",IOXAXYHXMLCCJJ-UHFFFAOYSA-N,Cc1cc(C)nc(NC(=O)NS(=O)(=O)c2ccccc2C(=O)OC2COC2)n1,-3.893,0.0,1,G1,406.42000000000024,1.1594399999999998,97.31070000000004,28.0,8.0,2.0,11.0,5.0,148.0,2.0,1.0,1.0,3.0,136.57999999999998,160.88719185343354,1.7647358310479642,999.807716059585
I-27,danofloxacin,"InChI=1S/C19H20FN3O3/c1-21-7-12-4-11(21)8-22(12)17-6-16-13(5-15(17)20)18(24)14(19(25)26)9-23(16)10-2-3-10/h5-6,9-12H,2-4,7-8H2,1H3,(H,25,26)/t11-,12-/m0/s1",QMLVECGLEOSESV-RYUDHWBXSA-N,CN1C[C@@H]2C[C@H]1CN2c1cc2c(cc1F)c(=O)c(C(=O)O)cn2C1CC1,-2.9,0.0,1,G1,357.3850000000001,2.0664,95.56530000000004,26.0,5.0,1.0,7.0,3.0,136.0,2.0,3.0,3.0,5.0,65.78,148.9770954977689,1.6958345503812136,995.667402275612
A-5578,"3,9-bis(2,4-di-tert-butylphenoxy)-2,4,8,10-tetraoxa-3,9-diphosphaspiro[5.5]undecane","InChI=1S/C33H50O6P2/c1-29(2,3)23-13-15-27(25(17-23)31(7,8)9)38-40-34-19-33(20-35-40)21-36-41(37-22-33)39-28-16-14-24(30(4,5)6)18-26(28)32(10,11)12/h13-18H,19-22H2,1-12H3/t33?,40-,41-",AIBRSVLEQRWAEG-IVBVVVCDSA-N,CC(C)(C)c1ccc(O[P@]2OCC3(CO[P@@](Oc4ccc(C(C)(C)C)cc4C(C)(C)C)OC3)CO2)c(C(C)(C)C)c1,-6.813060611,0.0,1,G1,604.7050000000002,9.868199999999996,169.02099999999953,41.0,6.0,0.0,8.0,4.0,228.0,2.0,2.0,2.0,4.0,55.38000000000001,250.34128310838253,1.3691352003561066,1101.1752510742103
B-3491,carfentrazone-ethyl,"InChI=1S/C15H14Cl2F3N3O3/c1-3-26-13(24)10(17)4-8-5-12(11(18)6-9(8)16)23-15(25)22(14(19)20)7(2)21-23/h5-6,10,14H,3-4H2,1-2H3",MLKCGVHIFJBRCD-UHFFFAOYSA-N,CCOC(=O)C(Cl)Cc1cc(-n2nc(C)n(C(F)F)c2=O)c(F)cc1Cl,-4.2727,0.0,1,G1,412.1950000000001,3.2430200000000022,88.76,26.0,6.0,0.0,11.0,6.0,142.0,2.0,0.0,0.0,2.0,66.12,155.6196731429764,2.47619464971367,882.9971680737194
B-3575,dibenzothiophene,InChI=1S/C12H8S/c1-3-7-11-9(5-1)10-6-2-4-8-12(10)13-11/h1-8H,IYYZUPMFVPLQIF-UHFFFAOYSA-N,c1ccc2c(c1)sc1ccccc12,-5.0981,0.3677392222153567,3,G5,184.263,4.054500000000002,59.33100000000003,13.0,1.0,0.0,1.0,0.0,62.0,3.0,0.0,0.0,3.0,0.0,80.43509545337886,2.642438259907001,512.8841359099093
C-2478,prazosin,"InChI=1S/C19H21N5O4/c1-26-15-10-12-13(11-16(15)27-2)21-19(22-17(12)20)24-7-5-23(6-8-24)18(25)14-4-3-9-28-14/h3-4,9-11H,5-8H2,1-2H3,(H2,20,21,22)",IENZQIKPVFGBNW-UHFFFAOYSA-N,COc1cc2nc(N3CCN(C(=O)c4ccco4)CC3)nc(N)c2cc1OC,-5.09,0.0,1,G1,383.4080000000002,1.7845999999999995,103.87890000000002,28.0,8.0,1.0,9.0,4.0,146.0,3.0,1.0,1.0,4.0,106.95,161.20072132699005,1.5561913356619823,997.2266742298812
B-1098,dmtt (dazomet),"InChI=1S/C5H10N2S2/c1-6-3-7(2)5(8)9-4-6/h3-4H2,1-2H3",QAYICIQNSGETAS-UHFFFAOYSA-N,CN1CSC(=S)N(C)C1,-1.7331,0.1984499999999999,2,G3,162.283,0.7967,45.44900000000002,9.0,3.0,0.0,4.0,0.0,52.0,0.0,1.0,1.0,1.0,6.48,65.19474594486361,2.438362799199123,126.12640240679956
B-1090,"1,2-cycloheptanedione, dioxime","InChI=1S/C7H12N2O2/c10-8-6-4-2-1-3-5-7(6)9-11/h8,10H,1-5H2",MYDALHRLYFBVMU-UHFFFAOYSA-N,O=NC1=C(NO)CCCCC1,-1.4249,0.0,1,G1,156.185,1.9073,40.828200000000024,11.0,4.0,2.0,4.0,2.0,62.0,0.0,0.0,1.0,1.0,61.69,65.22633594800823,2.7116520729574307,177.27938714610156
G-533,Cycloheptene,"InChI=1S/C7H12/c1-2-4-6-7-5-3-1/h1-2H,3-7H2",ZXIJMRYMVAMXQP-UHFFFAOYSA-N,C1=CCCCCC1,-3.18,0.00825,2,G3,96.173,2.5067000000000004,32.22499999999999,7.0,0.0,0.0,0.0,0.0,40.0,0.0,0.0,1.0,1.0,0.0,45.23346952849571,2.202927766407529,54.43856189774725
A-1000,"1,7-dioxacycloheptadecan-8-one",InChI=1S/C15H28O3/c16-15-11-7-4-2-1-3-5-8-12-17-13-9-6-10-14-18-15/h1-14H2,MKEIDVFLAWJKMY-UHFFFAOYSA-N,O=C1CCCCCCCCCOCCCCCO1,-3.8838494997,0.0,1,G1,256.3859999999999,3.850900000000003,72.56500000000005,18.0,3.0,0.0,3.0,0.0,106.0,0.0,1.0,1.0,1.0,35.53,111.2312220349104,2.113694135690367,183.91539480971147
B-3200,sulfometuron (ph 5-7),"InChI=1S/C15H16N4O5S/c1-9-8-10(2)17-14(16-9)18-15(21)19-25(22,23)12-7-5-4-6-11(12)13(20)24-3/h4-8H,1-3H3,(H2,16,17,18,19,21)",ZDXMLEQEMNLCQG-UHFFFAOYSA-N,COC(=O)c1ccccc1S(=O)(=O)NC(=O)Nc1nc(C)cc(C)n1,-3.1742,0.0470999999999999,2,G3,364.3830000000001,1.39044,88.62770000000003,25.0,7.0,2.0,10.0,4.0,132.0,2.0,0.0,0.0,2.0,127.35,144.0495935486626,2.239764540396422,907.0190014647744
B-3296,primisulfuron-methyl,"InChI=1S/C15H12F4N4O7S/c1-28-11(24)7-4-2-3-5-8(7)31(26,27)23-15(25)22-14-20-9(29-12(16)17)6-10(21-14)30-13(18)19/h2-6,12-13H,1H3,(H2,20,21,22,23,25)",ZTYVMAQSHCZXLF-UHFFFAOYSA-N,COC(=O)c1ccccc1S(=O)(=O)NC(=O)Nc1nc(OC(F)F)cc(OC(F)F)n1,-5.152,0.0,1,G1,468.34100000000007,1.9763999999999995,92.41770000000002,31.0,9.0,2.0,16.0,8.0,168.0,2.0,0.0,0.0,2.0,145.81,170.9388256193813,2.2625024655067234,1040.8291231621463
C-1048,chlorimuron-ethyl,"InChI=1S/C15H15ClN4O6S/c1-3-26-13(21)9-6-4-5-7-10(9)27(23,24)20-15(22)19-14-17-11(16)8-12(18-14)25-2/h4-8H,3H2,1-2H3,(H2,17,18,19,20,22)",NSWAMPCUPHPTTC-UHFFFAOYSA-N,CCOC(=O)c1ccccc1S(=O)(=O)NC(=O)Nc1nc(Cl)cc(OC)n1,-4.58,0.0,1,G1,414.8270000000001,1.8257,95.33270000000005,27.0,8.0,2.0,12.0,6.0,144.0,2.0,0.0,0.0,2.0,136.57999999999998,159.4664050050512,2.228235047344562,966.5295423929398
A-5225,"benzyldimethyl(2-{2-[4-(2,4,4-trimethylpentan-2-yl)phenoxy]ethoxy}ethyl)azanium chloride","InChI=1S/C27H42NO2.ClH/c1-26(2,3)22-27(4,5)24-13-15-25(16-14-24)30-20-19-29-18-17-28(6,7)21-23-11-9-8-10-12-23;/h8-16H,17-22H2,1-7H3;1H/q+1;/p-1",UREZNYTWGJKWBI-UHFFFAOYSA-M,CC(C)(C)CC(C)(C)c1ccc(OCCOCC[N+](C)(C)Cc2ccccc2)cc1.[Cl-],0.0729096485,0.0052619799999999,2,G3,448.09100000000024,3.0764000000000022,126.97540000000006,31.0,2.0,0.0,4.0,11.0,174.0,2.0,0.0,0.0,2.0,18.46,196.312617909872,4.804990568269088e-06,749.0559431822328
A-2740,"tris[(3,5-di-tert-butyl-4-hydroxyphenyl)methyl]-1,3,5-triazinane-2,4,6-trione","InChI=1S/C48H69N3O6/c1-43(2,3)31-19-28(20-32(37(31)52)44(4,5)6)25-49-40(55)50(26-29-21-33(45(7,8)9)38(53)34(22-29)46(10,11)12)42(57)51(41(49)56)27-30-23-35(47(13,14)15)39(54)36(24-30)48(16,17)18/h19-24,52-54H,25-27H2,1-18H3",VNQNXQYZMPJLQX-UHFFFAOYSA-N,CC(C)(C)c1cc(Cn2c(=O)n(Cc3cc(C(C)(C)C)c(O)c(C(C)(C)C)c3)c(=O)n(Cc3cc(C(C)(C)C)c(O)c(C(C)(C)C)c3)c2=O)cc(C(C)(C)C)c1O,-7.2923086931,0.6989700042999996,2,G2,784.095,9.218400000000004,233.04839999999913,57.0,9.0,3.0,9.0,6.0,312.0,4.0,0.0,0.0,4.0,126.69,339.6122487857423,2.1164230003505446,1964.324922043024
A-5519,"1,3,5-tris(4-tert-butyl-3-hydroxy-2,6-dimethylbenzyl)-1,3,5-triazinane-2,4,6-trione","InChI=1S/C42H57N3O6/c1-22-16-31(40(7,8)9)34(46)25(4)28(22)19-43-37(49)44(20-29-23(2)17-32(41(10,11)12)35(47)26(29)5)39(51)45(38(43)50)21-30-24(3)18-33(42(13,14)15)36(48)27(30)6/h16-18,46-48H,19-21H2,1-15H3",XYXJKPCGSGVSBO-UHFFFAOYSA-N,Cc1cc(C(C)(C)C)c(O)c(C)c1Cn1c(=O)n(Cc2c(C)cc(C(C)(C)C)c(O)c2C)c(=O)n(Cc2c(C)cc(C(C)(C)C)c(O)c2C)c1=O,-7.5440264742,0.0,1,G1,699.9330000000001,7.176420000000009,205.3703999999993,51.0,9.0,3.0,9.0,6.0,276.0,4.0,0.0,0.0,4.0,126.69000000000004,301.4225960993627,2.048471338322074,1947.7022026938296
A-27,"oxiran-2-ylmethyl 2,2-dimethyloctanoate","InChI=1S/C13H24O3/c1-5-13(4,7-6-10(2)3)12(14)16-9-11-8-15-11/h10-11H,5-9H2,1-4H3",DHEHEJGXTUCSQF-UHFFFAOYSA-N,CCC(C)(CCC(C)C)C(=O)OCC1CO1,-3.5134687407,0.0,1,G1,228.3319999999999,2.780900000000001,63.169000000000054,16.0,3.0,0.0,3.0,7.0,94.0,0.0,1.0,1.0,1.0,38.83,98.50133780611716,2.3749595757377504,233.33220565073853
A-1490,"9-[2-(2-methoxyethoxy)ethoxy]-9-[3-(oxiran-2-ylmethoxy)propyl]-2,5,8,10,13,16-hexaoxa-9-silaheptadecane","InChI=1S/C21H44O11Si/c1-22-6-9-25-12-15-30-33(31-16-13-26-10-7-23-2,32-17-14-27-11-8-24-3)18-4-5-28-19-21-20-29-21/h21H,4-20H2,1-3H3",BAPRPWHVXHPSHD-UHFFFAOYSA-N,COCCOCCO[Si](CCCOCC1CO1)(OCCOCCOC)OCCOCCOC,1.5823133383,0.0,1,G1,500.65800000000047,0.7696000000000052,121.6780000000001,33.0,11.0,0.0,12.0,27.0,198.0,0.0,1.0,1.0,1.0,104.83000000000004,199.0322325189101,2.515397303134452,374.8781537925359
A-2177,2-decyloxirane,"InChI=1S/C12H24O/c1-2-3-4-5-6-7-8-9-10-12-11-13-12/h12H,2-11H2,1H3",MPGABYXKKCLIRW-UHFFFAOYSA-N,CCCCCCCCCCC1CO1,-5.923156849500001,0.0,1,G1,184.323,3.916000000000003,56.967000000000056,13.0,1.0,0.0,1.0,9.0,78.0,0.0,1.0,1.0,1.0,12.53,82.86132836216991,1.6344124392929746,107.69210414479323
A-2178,2-dodecyloxirane,"InChI=1S/C14H28O/c1-2-3-4-5-6-7-8-9-10-11-12-14-13-15-14/h14H,2-13H2,1H3",IOHJQSFEAYDZGF-UHFFFAOYSA-N,CCCCCCCCCCCCC1CO1,-5.9846848009,0.3217263382499999,2,G3,212.37699999999995,4.696200000000004,66.20100000000006,15.0,1.0,0.0,1.0,11.0,90.0,0.0,1.0,1.0,1.0,12.53,95.59121259096314,1.6182570532012817,129.30039002532132
A-2703,2-tetradecyloxirane,"InChI=1S/C16H32O/c1-2-3-4-5-6-7-8-9-10-11-12-13-14-16-15-17-16/h16H,2-15H2,1H3",DSZTYVZOIUIIGA-UHFFFAOYSA-N,CCCCCCCCCCCCCCC1CO1,-6.6820204584,1.6505149978000002,2,G2,240.43099999999993,5.476400000000005,75.43500000000007,17.0,1.0,0.0,1.0,13.0,102.0,0.0,1.0,1.0,1.0,12.53,108.32109681975636,1.60754922625042,151.60416835317903
A-2812,trimethyl(oxiran-2-ylmethyl)azanium chloride,"InChI=1S/C6H14NO.ClH/c1-7(2,3)4-6-5-8-6;/h6H,4-5H2,1-3H3;1H/q+1;/p-1",PUVAFTRIIUSGLK-UHFFFAOYSA-M,C[N+](C)(C)CC1CO1.[Cl-],0.749634411,0.0,1,G1,151.63699999999997,-2.904599999999996,32.63939999999998,9.0,1.0,0.0,3.0,2.0,56.0,0.0,1.0,1.0,1.0,12.53,62.79457408513834,6.399999024000152e-07,85.5488750216347
A-2831,2-(chloromethyl)oxirane,"InChI=1S/C3H5ClO/c4-1-3-2-5-3/h3H,1-2H2",BRLQWZUYTZBJKN-UHFFFAOYSA-N,ClCC1CO1,-0.1473736792,0.0,1,G1,92.525,0.624,20.459999999999994,5.0,1.0,0.0,2.0,1.0,30.0,0.0,1.0,1.0,1.0,12.53,35.88011555948209,1.9989394851788975,33.87430298092722
A-2864,oxiran-2-ylmethyl 2-methylprop-2-enoate,"InChI=1S/C7H10O3/c1-5(2)7(8)10-4-6-3-9-6/h6H,1,3-4H2,2H3",VOZRXNHHFUQHIL-UHFFFAOYSA-N,C=C(C)C(=O)OCC1CO1,-0.4537890803,0.0,1,G1,142.154,0.5045000000000001,35.513,10.0,3.0,0.0,3.0,3.0,56.0,0.0,1.0,1.0,1.0,38.83,59.622082087553224,2.107751696006494,158.23415450316318
A-3149,2-ethyloxirane,"InChI=1S/C4H8O/c1-2-4-3-5-4/h4H,2-3H2,1H3",RBACIKXCRWGCBB-UHFFFAOYSA-N,CCC1CO1,0.080542298,0.0898962509941771,3,G5,72.107,0.7952,20.030999999999995,5.0,1.0,0.0,1.0,1.0,30.0,0.0,1.0,1.0,1.0,12.53,31.941791446997023,1.9989394851788975,30.62919048309069
A-3238,2-(butoxymethyl)oxirane; propan-2-amine; trifluoroborane,"InChI=1S/C7H14O2.C3H9N.BF3/c1-2-3-4-8-5-7-6-9-7;1-3(2)4;2-1(3)4/h7H,2-6H2,1H3;3H,4H2,1-2H3;",CXWVMBGMGJTKRX-UHFFFAOYSA-N,CC(C)N.CCCCOCC1CO1.FB(F)F,-0.5379542498,0.0,1,G1,257.10499999999996,2.4352,63.86840000000005,17.0,3.0,1.0,7.0,5.0,104.0,0.0,1.0,1.0,1.0,47.78,102.06362749048157,0.0,138.00292484589173
A-3433,"2,2-dimethyloxirane","InChI=1S/C4H8O/c1-4(2)3-5-4/h3H2,1-2H3",GELKGHVAFRCJNA-UHFFFAOYSA-N,CC1(C)CO1,-0.0945494336,0.0,1,G1,72.107,0.7952,20.030999999999995,5.0,1.0,0.0,1.0,0.0,30.0,0.0,1.0,1.0,1.0,12.53,31.941791446997023,2.3821985753493924,41.60964047443681
A-3687,2-methyloxirane,"InChI=1S/C3H6O/c1-3-2-4-3/h3H,2H2,1H3/t3-/m0/s1",GOOHAUXETOMSMM-VKHMYHEASA-N,C[C@H]1CO1,0.8380333836,0.0,1,G1,58.08,0.4051,15.414,4.0,1.0,0.0,1.0,0.0,24.0,0.0,1.0,1.0,1.0,12.53,25.576849332600418,2.171098317873574,22.46439344671015
A-3752,(2R)-2-methyloxirane,"InChI=1S/C3H6O/c1-3-2-4-3/h3H,2H2,1H3/t3-/m1/s1",GOOHAUXETOMSMM-GSVOUGTGSA-N,C[C@@H]1CO1,0.8380333836,0.0,1,G1,58.08,0.4051,15.414,4.0,1.0,0.0,1.0,0.0,24.0,0.0,1.0,1.0,1.0,12.53,25.576849332600418,2.171098317873574,22.46439344671015
A-4052,2-propyloxirane,"InChI=1S/C5H10O/c1-2-3-5-4-6-5/h5H,2-4H2,1H3",SYURNNNQIFDVCA-UHFFFAOYSA-N,CCCC1CO1,-0.57344678,0.0,1,G1,86.134,1.1853,24.64799999999999,6.0,1.0,0.0,1.0,2.0,36.0,0.0,1.0,1.0,1.0,12.53,38.30673356139363,1.8762858948376273,39.20310343869658
A-4248,"2,3-dimethyloxirane","InChI=1S/C4H8O/c1-3-4(2)5-3/h3-4H,1-2H3",PQXKWPLDPFFDJP-UHFFFAOYSA-N,CC1OC1C,0.3972950779,0.0,1,G1,72.107,0.7936,20.008999999999997,5.0,1.0,0.0,1.0,0.0,30.0,0.0,1.0,1.0,1.0,12.53,31.941791446997023,2.2034403442173716,36.91260938324327
A-4416,2-[(prop-2-en-1-yloxy)methyl]oxirane,"InChI=1S/C6H10O2/c1-2-3-7-4-6-5-8-6/h2,6H,1,3-5H2",LSWYGACWGAICNM-UHFFFAOYSA-N,C=CCOCC1CO1,0.049756882,0.019459033,2,G3,114.144,0.5878,30.755999999999982,8.0,2.0,0.0,2.0,4.0,46.0,0.0,1.0,1.0,1.0,21.76,49.095617873112865,1.803593800954553,76.59772060569361
A-4483,"but-2-yne-1,4-diol; 2-(chloromethyl)oxirane","InChI=1S/C4H6O2.C3H5ClO/c5-3-1-2-4-6;4-1-3-2-5-3/h5-6H,3-4H2;3H,1-2H2",NHNWEVUXQTXHJI-UHFFFAOYSA-N,ClCC1CO1.OCC#CCO,0.7778715429,1.19316839715,2,G2,178.61499999999998,-0.4016000000000002,42.40760000000002,11.0,3.0,2.0,4.0,1.0,64.0,0.0,1.0,1.0,1.0,52.99,70.93340806684903,1.833333306444445e-07,126.35644994446471
A-4913,2-{[(2-ethylhexyl)oxy]methyl}oxirane,"InChI=1S/C11H22O2/c1-3-5-6-10(4-2)7-12-8-11-9-13-11/h10-11H,3-9H2,1-2H3",BBBUAWSVILPJLL-UHFFFAOYSA-N,CCCCC(CC)COCC1CO1,-3.1148651614999996,0.0,1,G1,186.29499999999996,2.6182000000000007,53.865000000000045,13.0,2.0,0.0,2.0,8.0,78.0,0.0,1.0,1.0,1.0,21.76,81.60993147728016,1.9321089904901791,121.25868639907948
A-5138,2-methyloxirane,"InChI=1S/C3H6O/c1-3-2-4-3/h3H,2H2,1H3",GOOHAUXETOMSMM-UHFFFAOYSA-N,CC1CO1,0.8325704879000001,0.7152181451161633,3,G4,58.08,0.4051,15.414,4.0,1.0,0.0,1.0,0.0,24.0,0.0,1.0,1.0,1.0,12.53,25.576849332600418,2.171098317873574,22.46439344671015
B-176,ethylene oxide,InChI=1S/C2H4O/c1-2-3-1/h1-2H2,IAYPIBMASNFSPL-UHFFFAOYSA-N,C1CO1,1.356,0.0,1,G1,44.053,0.0166,10.819,3.0,1.0,0.0,1.0,0.0,18.0,0.0,1.0,1.0,1.0,12.53,19.21190721820381,2.25,7.509775004326937
B-755,oxanamide,"InChI=1S/C8H15NO2/c1-3-5-6-8(4-2,11-6)7(9)10/h6H,3-5H2,1-2H3,(H2,9,10)",WBLPIVIXQOFTPQ-UHFFFAOYSA-N,CCCC1OC1(CC)C(N)=O,-1.1745,0.0,1,G1,157.21299999999997,0.8193999999999999,41.9974,11.0,2.0,1.0,3.0,4.0,64.0,0.0,1.0,1.0,1.0,55.62,66.90297270163992,2.494019373924044,169.47499331586653
B-1179,oxiranemethanol,"InChI=1S/C3H6O2/c4-1-3-2-5-3/h3-4H,1-2H2",CTKINSOISVBQLD-UHFFFAOYSA-N,OCC1CO1,1.1303,0.0,1,G1,74.07900000000001,-0.6225,16.8258,5.0,2.0,1.0,2.0,1.0,30.0,0.0,1.0,1.0,1.0,32.76,30.371083084796428,1.9989394851788975,31.87430298092722
B-1294,"oxirane, 2-(chloromethyl)-2-methyl-","InChI=1S/C4H7ClO/c1-4(2-5)3-6-4/h2-3H2,1H3",VVHFXJOCUKBZFS-UHFFFAOYSA-N,CC1(CCl)CO1,-0.5504,0.0,1,G1,106.552,1.0141,25.07699999999999,6.0,1.0,0.0,2.0,1.0,36.0,0.0,1.0,1.0,1.0,12.53,42.24505767387869,2.276327168621918,58.568425030288566
B-1503,glycidylaldehyde,"InChI=1S/C3H4O2/c4-1-3-2-5-3/h1,3H,2H2",IWYRWIUNAVNFPE-UHFFFAOYSA-N,O=CC1CO1,1.1423,0.0,1,G1,72.063,-0.4159,15.804000000000002,5.0,2.0,0.0,2.0,1.0,28.0,0.0,1.0,1.0,1.0,29.6,29.738371432644183,2.2145461012997294,46.854752972273346