ID,Name,InChI,InChIKey,SMILES,Solubility,SD,Occurrences,Group,MolWt,MolLogP,MolMR,HeavyAtomCount,NumHAcceptors,NumHDonors,NumHeteroatoms,NumRotatableBonds,NumValenceElectrons,NumAromaticRings,NumSaturatedRings,NumAliphaticRings,RingCount,TPSA,LabuteASA,BalabanJ,BertzCT
E-597,acetanilide,"InChI=1S/C8H9NO/c1-7(10)9-8-5-3-2-4-6-8/h2-6H,1H3,(H,9,10)",FZERHIULMFGESH-UHFFFAOYSA-N,CC(=O)Nc1ccccc1,-1.33,0.0410582513022656,3,G5,135.16599999999997,1.645,40.74570000000002,10.0,1.0,1.0,2.0,1.0,52.0,1.0,0.0,0.0,1.0,29.1,59.872671631941984,2.6742416022951265,217.9590174505521
E-603,nitrobenzene,InChI=1S/C6H5NO2/c8-7(9)6-4-2-1-3-5-6/h1-5H,LQNUZADURLCDLV-UHFFFAOYSA-N,O=[N+]([O-])c1ccccc1,-1.8,0.0217564096362481,4,G5,123.11099999999996,1.5948,33.0964,9.0,2.0,0.0,3.0,1.0,46.0,1.0,0.0,0.0,1.0,43.14,52.08437884199676,2.981454614041131,207.5576620543373
E-673,4-aminoacetanilide,"InChI=1S/C8H10N2O/c1-6(11)10-8-4-2-7(9)3-5-8/h2-5H,9H2,1H3,(H,10,11)",CHMBIJAOCISYEW-UHFFFAOYSA-N,CC(=O)Nc1ccc(N)cc1,-0.98,0.0,1,G1,150.18099999999998,1.2272,45.15810000000001,11.0,2.0,2.0,3.0,1.0,58.0,1.0,0.0,0.0,1.0,55.120000000000005,65.21256232895469,2.736298072105655,253.29949758389105
E-674,4-bromoacetanilide,"InChI=1S/C8H8BrNO/c1-6(11)10-8-4-2-7(9)3-5-8/h2-5H,1H3,(H,10,11)",MSLICLMCQYQNPK-UHFFFAOYSA-N,CC(=O)Nc1ccc(Br)cc1,-3.08,0.0849999999999999,2,G3,214.062,2.4075000000000006,48.445700000000016,11.0,1.0,1.0,3.0,1.0,58.0,1.0,0.0,0.0,1.0,29.1,73.74021923758335,2.736298072105655,255.29949758389105
E-675,4-fluoroacetanilide,"InChI=1S/C8H8FNO/c1-6(11)10-8-4-2-7(9)3-5-8/h2-5H,1H3,(H,10,11)",JHEFOJNPLXSWNZ-UHFFFAOYSA-N,CC(=O)Nc1ccc(F)cc1,-1.78,0.0849999999999999,2,G3,153.15599999999998,1.7841,40.70370000000002,11.0,1.0,1.0,3.0,1.0,58.0,1.0,0.0,0.0,1.0,29.1,64.03820703486822,2.736298072105655,255.29949758389105