ID,Name,InChI,InChIKey,SMILES,Solubility,SD,Occurrences,Group,MolWt,MolLogP,MolMR,HeavyAtomCount,NumHAcceptors,NumHDonors,NumHeteroatoms,NumRotatableBonds,NumValenceElectrons,NumAromaticRings,NumSaturatedRings,NumAliphaticRings,RingCount,TPSA,LabuteASA,BalabanJ,BertzCT
B-4208,chlorfenvinphos,"InChI=1S/C12H14Cl3O4P/c1-3-17-20(16,18-4-2)19-12(8-13)10-6-5-9(14)7-11(10)15/h5-8H,3-4H2,1-2H3/b12-8-",FSAVDKDHPDSCTO-WQLSENKSSA-N,CCOP(=O)(OCC)O/C(=C\Cl)c1ccc(Cl)cc1Cl,-3.4624,0.0,1,G1,359.5730000000001,5.7283000000000035,82.23550000000003,20.0,4.0,0.0,8.0,7.0,112.0,1.0,0.0,0.0,1.0,44.760000000000005,132.7314978173331,3.0473402647740437,523.4337618117596
B-4209,3-chloro-dimethyl parathion,"InChI=1S/C8H9ClNO5PS/c1-13-16(17,14-2)15-6-3-4-8(10(11)12)7(9)5-6/h3-5H,1-2H3",NZNRRXXETLSZRO-UHFFFAOYSA-N,COP(=S)(OC)Oc1ccc([N+](=O)[O-])c(Cl)c1,-3.8717,0.0,1,G1,297.656,3.144300000000002,67.0374,17.0,6.0,0.0,9.0,5.0,94.0,1.0,0.0,0.0,1.0,70.83000000000001,107.83809308940526,2.989649487124908,474.98338445956347
B-4210,neburon,"InChI=1S/C12H16Cl2N2O/c1-3-4-7-16(2)12(17)15-9-5-6-10(13)11(14)8-9/h5-6,8H,3-4,7H2,1-2H3,(H,15,17)",CCGPUGMWYLICGL-UHFFFAOYSA-N,CCCCN(C)C(=O)Nc1ccc(Cl)c(Cl)c1,-4.7584,0.0057999999999998,2,G3,275.179,4.257200000000004,73.01870000000004,17.0,1.0,1.0,5.0,4.0,94.0,1.0,0.0,0.0,1.0,32.34,111.69880621349512,2.5795971234132855,396.0920604590611
B-4214,propanil,"InChI=1S/C9H9Cl2NO/c1-2-9(13)12-6-3-4-7(10)8(11)5-6/h3-5H,2H2,1H3,(H,12,13)",LFULEKSKNZEWOE-UHFFFAOYSA-N,CCC(=O)Nc1ccc(Cl)c(Cl)c1,-2.9864,0.1349358366039208,4,G5,218.08299999999997,3.3419000000000016,55.38270000000002,13.0,1.0,1.0,4.0,2.0,70.0,1.0,0.0,0.0,1.0,29.1,86.84414620010195,2.793568433647237,325.3907822709721
B-4217,carbophenothion-methyl,"InChI=1S/C9H12ClO2PS3/c1-11-13(14,12-2)16-7-15-9-5-3-8(10)4-6-9/h3-6H,7H2,1-2H3",OUCCVXVYGFBXSV-UHFFFAOYSA-N,COP(=S)(OC)SCSc1ccc(Cl)cc1,-5.2939,0.0,1,G1,314.821,4.640100000000003,78.07000000000004,16.0,5.0,0.0,7.0,6.0,90.0,1.0,0.0,0.0,1.0,18.46,114.34464866751698,2.409952515150928,363.5217766799077
B-4219,n-methyl-m-tolylcarbamate,"InChI=1S/C9H11NO2/c1-7-4-3-5-8(6-7)12-9(11)10-2/h3-6H,1-2H3,(H,10,11)",VOEYXMAFNDNNED-UHFFFAOYSA-N,CNC(=O)Oc1cccc(C)c1,-1.803,0.0,1,G1,165.19199999999998,1.71322,46.262700000000024,12.0,2.0,1.0,3.0,1.0,64.0,1.0,0.0,0.0,1.0,38.33,71.35115897584546,2.6942943035683435,283.61195376207496
B-4221,chlorothanonil,InChI=1S/C8Cl4N2/c9-5-3(1-13)6(10)8(12)7(11)4(5)2-14,CRQQGFGUEAVUIL-UHFFFAOYSA-N,N#Cc1c(Cl)c(Cl)c(Cl)c(C#N)c1Cl,-5.6466,0.630481220092152,3,G4,265.914,4.043560000000001,55.912000000000006,14.0,2.0,0.0,6.0,0.0,70.0,1.0,0.0,0.0,1.0,47.58,100.1595116187543,3.7817196239994977,440.5804759440678
B-4223,bromophos,"InChI=1S/C8H8BrCl2O3PS/c1-12-15(16,13-2)14-8-4-6(10)5(9)3-7(8)11/h3-4H,1-2H3",NYQDCVLCJXRDSK-UHFFFAOYSA-N,COP(=S)(OC)Oc1cc(Cl)c(Br)cc1Cl,-6.0864,1.0632,2,G2,366.0,4.652000000000002,73.09300000000002,16.0,4.0,0.0,8.0,4.0,90.0,1.0,0.0,0.0,1.0,27.69,117.35593119942848,3.0637668536422646,435.5367539129217
B-4224,fluometuron,"InChI=1S/C10H11F3N2O/c1-15(2)9(16)14-8-5-3-4-7(6-8)10(11,12)13/h3-6H,1-2H3,(H,14,16)",RZILCCPWPBTYDO-UHFFFAOYSA-N,CN(C)C(=O)Nc1cccc(C(F)(F)F)c1,-3.4365,0.0609587074733803,3,G5,232.20499999999996,2.7989000000000006,54.14970000000002,16.0,1.0,1.0,6.0,1.0,88.0,1.0,0.0,0.0,1.0,32.34,90.85899573971729,2.8751990386596566,387.8956862132586
B-4226,solan,"InChI=1S/C13H18ClNO/c1-4-5-10(3)13(16)15-11-7-6-9(2)12(14)8-11/h6-8,10H,4-5H2,1-3H3,(H,15,16)",WGVWLKXZBUVUAM-UHFFFAOYSA-N,CCCC(C)C(=O)Nc1ccc(C)c(Cl)c1,-4.4503,0.0,1,G1,239.746,4.023120000000003,68.89070000000004,16.0,1.0,1.0,3.0,4.0,88.0,1.0,0.0,0.0,1.0,29.1,102.00064843080668,2.658540869183674,376.1953853570544
B-4229,3-i-pr-5-mephenyl-n-me carbamate,"InChI=1S/C12H17NO2/c1-8(2)10-5-9(3)6-11(7-10)15-12(14)13-4/h5-8H,1-4H3,(H,13,14)",DTAPQAJKAFRNJB-UHFFFAOYSA-N,CNC(=O)Oc1cc(C)cc(C(C)C)c1,-3.3575,0.0,1,G1,207.273,2.8366200000000017,60.35170000000004,15.0,2.0,1.0,3.0,2.0,82.0,1.0,0.0,0.0,1.0,38.33,90.44598531903527,2.933366964265961,358.6397938525446
B-4230,n-methyl-2-isopropylphenylcarbam,"InChI=1S/C11H15NO2/c1-8(2)9-6-4-5-7-10(9)14-11(13)12-3/h4-8H,1-3H3,(H,12,13)",QBSJMKIUCUGGNG-UHFFFAOYSA-N,CNC(=O)Oc1ccccc1C(C)C,-2.6841,0.08945,2,G3,193.246,2.528200000000001,55.614700000000035,14.0,2.0,1.0,3.0,2.0,76.0,1.0,0.0,0.0,1.0,38.33,84.08104320463868,2.8972633792489466,320.8184995540784
B-4231,cyanophos,"InChI=1S/C9H10NO3PS/c1-11-14(15,12-2)13-9-5-3-8(7-10)4-6-9/h3-6H,1-2H3",SCKHCCSZFPSHGR-UHFFFAOYSA-N,COP(=S)(OC)Oc1ccc(C#N)cc1,-3.7232,0.0,1,G1,243.224,2.4543800000000005,60.08800000000002,15.0,5.0,0.0,6.0,4.0,80.0,1.0,0.0,0.0,1.0,51.48,93.63937293588911,2.8184686840890385,404.3607878340686
B-4232,"3,5-Xylyl methylcarbamate","InChI=1S/C10H13NO2/c1-7-4-8(2)6-9(5-7)13-10(12)11-3/h4-6H,1-3H3,(H,11,12)",CVQODEWAPZVVBU-UHFFFAOYSA-N,CNC(=O)Oc1cc(C)cc(C)c1,-2.5813,0.0,1,G1,179.219,2.02164,50.999700000000026,13.0,2.0,1.0,3.0,1.0,70.0,1.0,0.0,0.0,1.0,38.33,77.71610109024208,2.8277507114795024,300.4508263350793
B-4233,metobromuron,"InChI=1S/C9H11BrN2O2/c1-12(14-2)9(13)11-8-5-3-7(10)4-6-8/h3-6H,1-2H3,(H,11,13)",WLFDQEVORAMCIM-UHFFFAOYSA-N,CON(C)C(=O)Nc1ccc(Br)cc1,-2.895,0.0,1,G1,259.10299999999995,2.4742000000000006,57.932700000000025,14.0,2.0,1.0,5.0,2.0,76.0,1.0,0.0,0.0,1.0,41.57,90.9325787511682,2.604870971658759,313.0929223461078
B-4236,buturon,"InChI=1S/C12H13ClN2O/c1-4-9(2)15(3)12(16)14-11-7-5-10(13)6-8-11/h1,5-9H,2-3H3,(H,14,16)",BYYMILHAKOURNM-UHFFFAOYSA-N,C#CC(C)N(C)C(=O)Nc1ccc(Cl)cc1,-3.8971,0.0,1,G1,236.702,2.825400000000001,66.52870000000003,16.0,1.0,1.0,4.0,2.0,84.0,1.0,0.0,0.0,1.0,32.34,100.39476537847274,2.648497145709761,408.0220914064313
B-4239,bromophos ethyl,"InChI=1S/C10H12BrCl2O3PS/c1-3-14-17(18,15-4-2)16-10-6-8(12)7(11)5-9(10)13/h5-6H,3-4H2,1-2H3",KWGUFOITWDSNQY-UHFFFAOYSA-N,CCOP(=S)(OCC)Oc1cc(Cl)c(Br)cc1Cl,-5.9521,0.0,1,G1,394.054,5.4322000000000035,82.32700000000003,18.0,4.0,0.0,8.0,6.0,102.0,1.0,0.0,0.0,1.0,27.69,130.0858154282217,3.006125183376143,462.68116844292115
B-4240,monalide,"InChI=1S/C13H18ClNO/c1-4-9-13(2,3)12(16)15-11-7-5-10(14)6-8-11/h5-8H,4,9H2,1-3H3,(H,15,16)",KXGYBSNVFXBPNO-UHFFFAOYSA-N,CCCC(C)(C)C(=O)Nc1ccc(Cl)cc1,-4.0218,0.0,1,G1,239.746,4.104800000000003,68.77070000000005,16.0,1.0,1.0,3.0,4.0,88.0,1.0,0.0,0.0,1.0,29.1,102.00064843080672,2.671180989183102,356.7002728592179
B-4241,propaphos,"InChI=1S/C13H21O4PS/c1-4-10-15-18(14,16-11-5-2)17-12-6-8-13(19-3)9-7-12/h6-9H,4-5,10-11H2,1-3H3",PWYIUEFFPNVCMW-UHFFFAOYSA-N,CCCOP(=O)(OCCC)Oc1ccc(SC)cc1,-3.3865,0.0,1,G1,304.348,4.748600000000004,78.94350000000006,19.0,5.0,0.0,6.0,9.0,108.0,1.0,0.0,0.0,1.0,44.760000000000005,118.9993543086342,2.7112591144821527,395.6091732142794
B-4244,chlorbromuron,"InChI=1S/C9H10BrClN2O2/c1-13(15-2)9(14)12-6-3-4-7(10)8(11)5-6/h3-5H,1-2H3,(H,12,14)",NLYNUTMZTCLNOO-UHFFFAOYSA-N,CON(C)C(=O)Nc1ccc(Br)c(Cl)c1,-3.9236,0.0,1,G1,293.548,3.127600000000002,62.94270000000002,15.0,2.0,1.0,6.0,2.0,82.0,1.0,0.0,0.0,1.0,41.57,101.23584497804984,2.7296891226311293,373.1300188482176
B-4245,chlortoluron,"InChI=1S/C10H13ClN2O/c1-7-4-5-8(6-9(7)11)12-10(14)13(2)3/h4-6H,1-3H3,(H,12,14)",JXCGFZXSOMJFOA-UHFFFAOYSA-N,Cc1ccc(NC(=O)N(C)C)cc1Cl,-3.4826,0.4049001962075208,3,G5,212.68,2.7419200000000012,58.89470000000003,14.0,1.0,1.0,4.0,1.0,76.0,1.0,0.0,0.0,1.0,32.34,88.66565575782023,2.781208374094021,349.9752768616324
B-4247,iodofenphos,"InChI=1S/C8H8Cl2IO3PS/c1-12-15(16,13-2)14-8-4-5(9)7(11)3-6(8)10/h3-4H,1-2H3",LFVLUOAHQIVABZ-UHFFFAOYSA-N,COP(=S)(OC)Oc1cc(Cl)c(I)cc1Cl,-6.6160000000000005,0.0,1,G1,413.0,4.494100000000002,78.11000000000001,16.0,4.0,0.0,8.0,4.0,90.0,1.0,0.0,0.0,1.0,27.69,122.75022171483076,3.0637668536422646,435.5367539129217
B-4250,fenamiphos,"InChI=1S/C13H22NO3PS/c1-6-16-18(15,14-10(2)3)17-12-7-8-13(19-5)11(4)9-12/h7-10H,6H2,1-5H3,(H,14,15)",ZCJPOPBZHLUFHF-UHFFFAOYSA-N,CCOP(=O)(NC(C)C)Oc1ccc(SC)c(C)c1,-2.9648,0.0673999999999999,2,G3,303.36400000000003,4.238320000000003,81.09220000000005,19.0,4.0,1.0,6.0,7.0,108.0,1.0,0.0,0.0,1.0,47.56,119.40521038036616,2.9018753958305568,465.20159328759047
B-4252,isofenphos,"InChI=1S/C15H24NO4PS/c1-6-18-21(22,16-11(2)3)20-14-10-8-7-9-13(14)15(17)19-12(4)5/h7-12H,6H2,1-5H3,(H,16,22)",HOQADATXFBOEGG-UHFFFAOYSA-N,CCOP(=S)(NC(C)C)Oc1ccccc1C(=O)OC(C)C,-4.1939,0.0,1,G1,345.4010000000002,3.8896000000000033,91.80420000000004,22.0,5.0,1.0,7.0,8.0,124.0,1.0,0.0,0.0,1.0,56.790000000000006,137.11736934208267,3.049534512741318,548.098914116059
B-4253,iprobenfos,"InChI=1S/C13H21O3PS/c1-11(2)15-17(14,16-12(3)4)18-10-13-8-6-5-7-9-13/h5-9,11-12H,10H2,1-4H3",FCOAHACKGGIURQ-UHFFFAOYSA-N,CC(C)OP(=O)(OC(C)C)SCc1ccccc1,-2.8579,0.0,1,G1,288.349,4.877900000000004,77.78550000000006,18.0,4.0,0.0,5.0,7.0,102.0,1.0,0.0,0.0,1.0,35.53,113.5477234441186,2.640460092253913,378.48264694846006
B-4254,thiobencarb,"InChI=1S/C12H16ClNOS/c1-3-14(4-2)12(15)16-9-10-5-7-11(13)8-6-10/h5-8H,3-4,9H2,1-2H3",QHTQREMOGMZHJV-UHFFFAOYSA-N,CCN(CC)C(=O)SCc1ccc(Cl)cc1,-3.9641,0.01705,2,G3,257.786,4.035000000000004,71.06400000000004,16.0,2.0,0.0,4.0,4.0,88.0,1.0,0.0,0.0,1.0,20.31,105.96878782837068,2.4492413621653952,335.3769263952091
B-4292,4-hexylresorcinol,"InChI=1S/C12H18O2/c1-2-3-4-5-6-10-7-8-11(13)9-12(10)14/h7-9,13-14H,2-6H2,1H3",WFJIVOKAWHGMBH-UHFFFAOYSA-N,CCCCCCc1ccc(O)cc1O,-2.5895,0.0734016679,2,G3,194.274,3.2206000000000023,57.617600000000046,14.0,2.0,2.0,2.0,5.0,78.0,1.0,0.0,0.0,1.0,40.46,85.20952331026865,2.4244942240332854,281.65026016439094
B-4301,"1,4-benzenediamine","InChI=1S/C6H8N2/c7-5-1-2-6(8)4-3-5/h1-4H,7-8H2",CBCKQZAAMUWICA-UHFFFAOYSA-N,Nc1ccc(N)cc1,-0.4658,0.0600459024080357,4,G5,108.144,0.8510000000000002,35.2668,8.0,2.0,2.0,2.0,0.0,42.0,1.0,0.0,0.0,1.0,52.04,48.11118451352239,3.0324555320336755,145.38833891467198
B-4304,p-methylsulfonyltoluene,"InChI=1S/C8H10O2S/c1-7-3-5-8(6-4-7)11(2,9)10/h3-6H,1-2H3",YYDNBUBMBZRNQQ-UHFFFAOYSA-N,Cc1ccc(S(C)(=O)=O)cc1,-1.9873,0.0,1,G1,170.23299999999998,1.39852,44.28880000000002,11.0,2.0,0.0,3.0,1.0,60.0,1.0,0.0,0.0,1.0,34.14,66.78668573007675,3.2015159310664942,334.8597370000623
B-4309,"ethenesulfonamide, n-phenyl-","InChI=1S/C8H9NO2S/c1-2-12(10,11)9-8-6-4-3-5-7-8/h2-7,9H,1H2",YRLXBWHNSONKOH-UHFFFAOYSA-N,C=CS(=O)(=O)Nc1ccccc1,-1.4996,0.0,1,G1,183.23200000000003,1.5718,49.18150000000002,12.0,2.0,1.0,4.0,3.0,64.0,1.0,0.0,0.0,1.0,46.17,71.78232239212905,2.84972423894021,355.90406717944
B-4310,"benzenamine, n-hydroxy-4-methyl-","InChI=1S/C7H9NO/c1-6-2-4-7(8-9)5-3-6/h2-5,8-9H,1H3",AGJOAIMUXIQLCN-UHFFFAOYSA-N,Cc1ccc(NO)cc1,-0.7894,0.0,1,G1,123.155,1.7961199999999995,36.5882,9.0,2.0,2.0,2.0,1.0,48.0,1.0,0.0,0.0,1.0,32.26,54.0944796691756,2.8815558776461354,180.61256853719755
B-4311,phenylhydroxylamine,"InChI=1S/C6H7NO/c8-7-6-4-2-1-3-5-6/h1-5,7-8H",CKRZKMFTZCFYGB-UHFFFAOYSA-N,ONc1ccccc1,-0.4359,0.15055,2,G3,109.12799999999996,1.4876999999999998,31.8512,8.0,2.0,2.0,2.0,1.0,42.0,1.0,0.0,0.0,1.0,32.26,47.729537554779,2.8320858350070908,149.87452390041133
B-4320,ethyl benzenesulfonate,"InChI=1S/C8H10O3S/c1-2-11-12(9,10)8-6-4-3-5-7-8/h3-7H,2H2,1H3",XDRMBCMMABGNMM-UHFFFAOYSA-N,CCOS(=O)(=O)c1ccccc1,-2.1308,0.0,1,G1,186.23200000000003,1.4118000000000002,45.25380000000003,12.0,3.0,0.0,4.0,3.0,66.0,1.0,0.0,0.0,1.0,43.370000000000005,72.10923483564169,2.9915745285024826,328.580422437888
B-4321,methyl benzenesulfonate,"InChI=1S/C7H8O3S/c1-10-11(8,9)7-5-3-2-4-6-7/h2-6H,1H3",CZXGXYBOQYQXQD-UHFFFAOYSA-N,COS(=O)(=O)c1ccccc1,-1.7419,0.0,1,G1,172.205,1.0217,40.63680000000002,11.0,3.0,0.0,4.0,2.0,60.0,1.0,0.0,0.0,1.0,43.370000000000005,65.74429272124507,3.13971737739725,314.79873975447003
B-4333,"1,3-benzenedicarboxylic acid, 2-(carboxycarbonyl)-","InChI=1S/C10H6O7/c11-7(10(16)17)6-4(8(12)13)2-1-3-5(6)9(14)15/h1-3H,(H,12,13)(H,14,15)(H,16,17)",MKKVMUPZRDPRHL-UHFFFAOYSA-N,O=C(O)C(=O)c1c(C(=O)O)cccc1C(=O)O,-0.4541,0.0,1,G1,238.151,0.3503000000000001,52.3269,17.0,4.0,3.0,7.0,4.0,88.0,1.0,0.0,0.0,1.0,128.97,93.91996123384652,3.6059006195477066,497.20599283598176
B-4342,"(2,4-dimethylphenyl)phosphonic acid","InChI=1S/C8H11O3P/c1-6-3-4-8(7(2)5-6)12(9,10)11/h3-5H,1-2H3,(H2,9,10,11)",DLXVLBCCGRQAAA-UHFFFAOYSA-N,Cc1ccc(P(=O)(O)O)c(C)c1,-1.0938,0.0,1,G1,186.147,1.10644,47.594100000000026,12.0,1.0,2.0,4.0,1.0,66.0,1.0,0.0,0.0,1.0,57.53,71.21269526903005,3.2848383766231546,340.15625140819
B-4351,phenylmercuric acetate,"InChI=1S/C6H5.C2H4O2.Hg/c1-2-4-6-5-3-1;1-2(3)4;/h1-5H;1H3,(H,3,4);/q;;+1/p-1",XEBWQGVWTUSTLN-UHFFFAOYSA-M,CC(=O)[O][Hg][c]1ccccc1,-1.8868,0.1695999999999999,2,G3,336.74000000000007,0.8725,37.84200000000001,11.0,2.0,0.0,3.0,2.0,54.0,1.0,0.0,0.0,1.0,26.3,78.6604638419112,2.453018743531937,233.1071909292143
B-4360,"1-phenylpropane-1,2-dione","InChI=1S/C9H8O2/c1-7(10)9(11)8-5-3-2-4-6-8/h2-6H,1H3",BVQVLAIMHVDZEL-UHFFFAOYSA-N,CC(=O)C(=O)c1ccccc1,-1.7558,0.0,1,G1,148.16099999999997,1.4583000000000002,41.45350000000002,11.0,2.0,0.0,2.0,2.0,56.0,1.0,0.0,0.0,1.0,34.14,64.84927366277431,2.9479803431399967,274.87402422213546
B-4367,chlorphoxim,"InChI=1S/C12H14ClN2O3PS/c1-3-16-19(20,17-4-2)18-15-12(9-14)10-7-5-6-8-11(10)13/h5-8H,3-4H2,1-2H3/b15-12+",GQKRUMZWUHSLJF-NTCAYCPXSA-N,CCOP(=S)(OCC)O/N=C(\C#N)c1ccccc1Cl,-5.2917,0.0,1,G1,332.749,3.8817800000000022,82.22400000000003,20.0,6.0,0.0,8.0,7.0,108.0,1.0,0.0,0.0,1.0,63.84,127.88682649129872,2.9883516144192117,564.0660168264776
B-4368,chlorthiamid,"InChI=1S/C7H5Cl2NS/c8-4-2-1-3-5(9)6(4)7(10)11/h1-3H,(H2,10,11)",KGKGSIUWJCAFPX-UHFFFAOYSA-N,NC(=S)c1c(Cl)cccc1Cl,-2.3363,0.0,1,G1,206.097,2.627600000000001,52.34940000000001,11.0,1.0,1.0,4.0,1.0,58.0,1.0,0.0,0.0,1.0,26.02,80.10154863187451,3.318913173486669,278.2420897763861
B-4371,"benzenesulfonic acid, pentabromo-","InChI=1S/C6HBr5O3S/c7-1-2(8)4(10)6(15(12,13)14)5(11)3(1)9/h(H,12,13,14)",ZMOIAEHZILNVCK-UHFFFAOYSA-N,O=S(=O)(O)c1c(Br)c(Br)c(Br)c(Br)c1Br,-2.0061,0.0,1,G1,552.6580000000001,4.7458,74.75660000000002,15.0,2.0,1.0,9.0,1.0,84.0,1.0,0.0,0.0,1.0,54.37,128.39777715774437,3.844585904075488,495.05428338471296
B-4392,"1,3,5-tribromobenzene",InChI=1S/C6H3Br3/c7-4-1-5(8)3-6(9)2-4/h1-3H,YWDUZLFWHVQCHY-UHFFFAOYSA-N,Brc1cc(Br)cc(Br)c1,-5.6004,0.0,1,G1,314.802,3.974100000000001,49.54200000000001,9.0,0.0,0.0,3.0,0.0,48.0,1.0,0.0,0.0,1.0,0.0,79.03404593642105,3.165670309917317,169.06517765499825
B-4395,"2,4,6-tribromophenol","InChI=1S/C6H3Br3O/c7-3-1-4(8)6(10)5(9)2-3/h1-2,10H",BSWWXRFVMJHFBN-UHFFFAOYSA-N,Oc1c(Br)cc(Br)cc1Br,-3.6745,0.5515407646350333,3,G4,330.801,3.6797,51.20680000000001,10.0,1.0,1.0,4.0,0.0,54.0,1.0,0.0,0.0,1.0,20.23,83.82827968861706,3.310532874722407,236.16499587006643
B-4396,"2,4,6-trichloroaniline","InChI=1S/C6H4Cl3N/c7-3-1-4(8)6(10)5(9)2-3/h1-2H,10H2",NATVSFWWYVJTAZ-UHFFFAOYSA-N,Nc1c(Cl)cc(Cl)cc1Cl,-3.6912,0.1385570067269316,4,G5,196.464,3.229,45.88440000000001,10.0,1.0,1.0,4.0,0.0,54.0,1.0,0.0,0.0,1.0,26.02,73.6810924971547,3.310532874722407,236.16499587006643
B-4400,tropic acid,"InChI=1S/C9H10O3/c10-6-8(9(11)12)7-4-2-1-3-5-7/h1-5,8,10H,6H2,(H,11,12)",JACRWUWPXAESPB-UHFFFAOYSA-N,O=C(O)C(CO)c1ccccc1,-0.9305,0.0055,2,G3,166.176,0.8471000000000002,43.90460000000002,12.0,2.0,2.0,3.0,3.0,64.0,1.0,0.0,0.0,1.0,57.53,70.27621906712257,2.877595790918249,255.7359747745539
B-4402,o-hydroxybenzyl alcohol,"InChI=1S/C7H8O2/c8-5-6-3-1-2-4-7(6)9/h1-4,8-9H,5H2",CQRYARSYNCAZFO-UHFFFAOYSA-N,OCc1ccccc1O,-0.2946,0.0,1,G1,124.13899999999995,0.8844999999999998,34.029599999999995,9.0,2.0,2.0,2.0,1.0,48.0,1.0,0.0,0.0,1.0,40.46,53.3848127382856,3.0065240073265844,195.86256853719752
B-4411,4-aminoacetophenone,"InChI=1S/C8H9NO/c1-6(10)7-2-4-8(9)5-3-7/h2-5H,9H2,1H3",GPRYKVSEZCQIHD-UHFFFAOYSA-N,CC(=O)c1ccc(N)cc1,-1.6058,0.1978999999999999,2,G3,135.166,1.4714,40.85890000000001,10.0,2.0,1.0,2.0,1.0,52.0,1.0,0.0,0.0,1.0,43.09,59.662700145346655,3.003400684579818,237.93943338088377
B-4421,n-phenylthiourea,"InChI=1S/C7H8N2S/c8-7(10)9-6-4-2-1-3-5-6/h1-5H,(H3,8,9,10)",FULZLIGZKMKICU-UHFFFAOYSA-N,NC(=S)Nc1ccccc1,-1.7898,0.0099,2,G3,152.22199999999998,1.3421,46.85010000000001,10.0,1.0,2.0,3.0,1.0,52.0,1.0,0.0,0.0,1.0,38.05,65.0448783617192,2.6742416022951265,220.3075329961489
B-4441,n4-acetylsulfanilamide,"InChI=1S/C8H10N2O3S/c1-6(11)10-7-2-4-8(5-3-7)14(9,12)13/h2-5H,1H3,(H,10,11)(H2,9,12,13)",PKOFBDHYTMYVGJ-UHFFFAOYSA-N,CC(=O)Nc1ccc(S(N)(=O)=O)cc1,-1.6066,0.3016999999999999,2,G3,214.246,0.2923999999999999,52.11890000000002,14.0,3.0,2.0,6.0,2.0,76.0,1.0,0.0,0.0,1.0,89.25999999999999,81.97333822136977,2.951896247179317,436.159125541551
B-4459,chloramphenicol,"InChI=1S/C11H12Cl2N2O5/c12-10(13)11(18)14-8(5-16)9(17)6-1-3-7(4-2-6)15(19)20/h1-4,8-10,16-17H,5H2,(H,14,18)",WIIZWVCIJKGZOK-UHFFFAOYSA-N,O=C(NC(CO)C(O)c1ccc([N+](=O)[O-])cc1)C(Cl)Cl,-2.1114,0.436462537529473,3,G5,323.13200000000006,0.909,72.56670000000003,20.0,5.0,3.0,9.0,6.0,110.0,1.0,0.0,0.0,1.0,112.70000000000002,123.815473655787,2.821158149823159,480.2067575330304
B-4494,ephedrine,"InChI=1S/C10H15NO/c1-8(11-2)10(12)9-6-4-3-5-7-9/h3-8,10-12H,1-2H3/t8-,10-/m0/s1",KWGRBVOPPLSCSI-WPRPVWTQSA-N,CN[C@@H](C)[C@H](O)c1ccccc1,-0.4147,0.0,1,G1,165.236,1.3279,49.92350000000003,12.0,2.0,2.0,2.0,3.0,66.0,1.0,0.0,0.0,1.0,32.26,73.23526751288745,2.7110407232330616,222.5400055614587
B-4496,carbutamide,"InChI=1S/C11H17N3O3S/c1-2-3-8-13-11(15)14-18(16,17)10-6-4-9(12)5-7-10/h4-7H,2-3,8,12H2,1H3,(H2,13,14,15)",VDTNNGKXZGSZIP-UHFFFAOYSA-N,CCCCNC(=O)NS(=O)(=O)c1ccc(N)cc1,-2.1782,0.0,1,G1,271.342,1.0568,69.48260000000002,18.0,4.0,3.0,7.0,5.0,100.0,1.0,0.0,0.0,1.0,101.29,106.61802674816768,2.6444911926355648,496.7696521436177
B-4514,o-aminophenol,"InChI=1S/C6H7NO/c7-5-3-1-2-4-6(5)8/h1-4,8H,7H2",CDAWCLOXVUBKRW-UHFFFAOYSA-N,Nc1ccccc1O,-0.7369,0.0378919465509444,3,G5,109.128,0.9744,32.5192,8.0,2.0,2.0,2.0,0.0,42.0,1.0,0.0,0.0,1.0,46.25,47.56552756870569,3.134861511345448,164.63833891467198
B-4515,"2-amino-4,6-dinitrophenol","InChI=1S/C6H5N3O5/c7-4-1-3(8(11)12)2-5(6(4)10)9(13)14/h1-2,10H,7H2",QXYMVUZOGFVPGH-UHFFFAOYSA-N,Nc1cc([N+](=O)[O-])cc([N+](=O)[O-])c1O,-2.4862,0.166604395,2,G3,199.122,0.7907999999999997,45.828,14.0,6.0,2.0,8.0,2.0,74.0,1.0,0.0,0.0,1.0,132.53,76.87147901370528,3.427504477934317,416.1731577182378
B-4516,3-nitroaniline,"InChI=1S/C6H6N2O2/c7-5-2-1-3-6(4-5)8(9)10/h1-4H,7H2",XJCVRTZCHMZPBD-UHFFFAOYSA-N,Nc1cccc([N+](=O)[O-])c1,-2.0611,0.0644499999999999,2,G3,138.126,1.177,37.50880000000001,10.0,3.0,1.0,4.0,1.0,52.0,1.0,0.0,0.0,1.0,69.16,57.42426953900948,3.069899265759275,259.67965837655686
B-4517,4-nitroaniline,"InChI=1S/C6H6N2O2/c7-5-1-3-6(4-2-5)8(9)10/h1-4H,7H2",TYMLOMAKGOJONV-UHFFFAOYSA-N,Nc1ccc([N+](=O)[O-])cc1,-2.2782,0.0459,2,G3,138.126,1.177,37.508800000000015,10.0,3.0,1.0,4.0,1.0,52.0,1.0,0.0,0.0,1.0,69.16,57.42426953900948,3.003400684579818,242.4296583765568
B-4520,"2,4-dinitrophenol","InChI=1S/C6H4N2O5/c9-6-2-1-4(7(10)11)3-5(6)8(12)13/h1-3,9H",UFBJCMHMOXMLKC-UHFFFAOYSA-N,O=[N+]([O-])c1ccc(O)c([N+](=O)[O-])c1,-2.5976,0.4045783530998787,3,G5,184.107,1.2086000000000003,41.41560000000001,13.0,5.0,1.0,7.0,2.0,68.0,1.0,0.0,0.0,1.0,106.51,71.53158831669259,3.267052212361692,375.287402549959
B-4522,4-methyl-2-nitrophenol,"InChI=1S/C7H7NO3/c1-5-2-3-7(9)6(4-5)8(10)11/h2-4,9H,1H3",SYDNSSSQVSOXTN-UHFFFAOYSA-N,Cc1ccc(O)c([N+](=O)[O-])c1,-2.3837,0.0831499999999998,2,G3,153.137,1.6088199999999997,39.49820000000002,11.0,3.0,1.0,4.0,1.0,58.0,1.0,0.0,0.0,1.0,63.37,63.243554708589386,3.232208870305491,295.7372022742226
B-4524,4-hydroxybenzaldehyde,"InChI=1S/C7H6O2/c8-5-6-1-3-7(9)4-2-6/h1-5,9H",RGHHSNMVTDWUBI-UHFFFAOYSA-N,O=Cc1ccc(O)cc1,-0.9762,0.0907039629172225,3,G5,122.12299999999998,1.2047,33.4943,9.0,2.0,1.0,2.0,1.0,46.0,1.0,0.0,0.0,1.0,37.3,52.75210108613335,3.009781947786601,200.66106510209755
B-4525,"2,5-dinitrophenol","InChI=1S/C6H4N2O5/c9-6-3-4(7(10)11)1-2-5(6)8(12)13/h1-3,9H",UWEZBKLLMKVIPI-UHFFFAOYSA-N,O=[N+]([O-])c1ccc([N+](=O)[O-])c(O)c1,-2.6796,0.0,1,G1,184.10699999999997,1.2086000000000003,41.41560000000001,13.0,5.0,1.0,7.0,2.0,68.0,1.0,0.0,0.0,1.0,106.51,71.53158831669259,3.2021054375890703,375.28740254995904