ID,Name,InChI,InChIKey,SMILES,Solubility,SD,Occurrences,Group,MolWt,MolLogP,MolMR,HeavyAtomCount,NumHAcceptors,NumHDonors,NumHeteroatoms,NumRotatableBonds,NumValenceElectrons,NumAromaticRings,NumSaturatedRings,NumAliphaticRings,RingCount,TPSA,LabuteASA,BalabanJ,BertzCT
D-1421,homatropine,"InChI=1S/C16H21NO3/c1-17-12-7-8-13(17)10-14(9-12)20-16(19)15(18)11-5-3-2-4-6-11/h2-6,12-15,18H,7-10H2,1H3",ZTVIKZXZYLEVOL-UHFFFAOYSA-N,CN1C2CCC1CC(OC(=O)C(O)c1ccccc1)C2,-1.44,0.0,1,G1,275.348,1.8884,75.08880000000005,20.0,4.0,1.0,4.0,3.0,108.0,1.0,2.0,2.0,3.0,49.77,118.89829670835464,1.5975120721745049,461.8701458124774
B-2554,"nicotinamide, n-(6-methoxy-8-quinolyl)-","InChI=1S/C16H13N3O2/c1-21-13-8-11-4-3-7-18-15(11)14(9-13)19-16(20)12-5-2-6-17-10-12/h2-10H,1H3,(H,19,20)",ZWJRCYOUDPYYAQ-UHFFFAOYSA-N,COc1cc(NC(=O)c2cccnc2)c2ncccc2c1,-4.4461,0.0,1,G1,279.29900000000004,2.8907000000000007,80.48520000000002,21.0,4.0,1.0,5.0,3.0,104.0,3.0,0.0,0.0,3.0,64.11,121.16427156114108,2.0158973857591436,787.8888977295803
A-3297,"sodium 1-amino-4-({4-[(N-methyl4-methylbenzenesulfonamido)methyl]phenyl}amino)-9,10-dioxo-9,10-dihydroanthracene-2-sulfonate","InChI=1S/C29H25N3O7S2.Na/c1-17-7-13-20(14-8-17)40(35,36)32(2)16-18-9-11-19(12-10-18)31-23-15-24(41(37,38)39)27(30)26-25(23)28(33)21-5-3-4-6-22(21)29(26)34;/h3-15,31H,16,30H2,1-2H3,(H,37,38,39);/q;+1/p-1",JOXJJQNGIBRWJT-UHFFFAOYSA-M,Cc1ccc(S(=O)(=O)N(C)Cc2ccc(Nc3cc(S(=O)(=O)[O-])c(N)c4c3C(=O)c3ccccc3C4=O)cc2)cc1.[Na+],-1.9428219908,0.0,1,G1,613.6490000000001,0.8250200000000025,151.6810999999998,42.0,9.0,2.0,13.0,7.0,210.0,4.0,0.0,1.0,5.0,166.76999999999998,265.1970074322222,4.049990428523513e-06,1942.6683381518876
A-3264,"1,2,4-triazole","InChI=1S/C2H3N3/c1-3-2-5-4-1/h1-2H,(H,3,4,5)",NSPMIYGKQJPBQR-UHFFFAOYSA-N,c1nc[nH]n1,1.0058274476,0.0091124100999999,2,G3,69.067,-0.1952999999999999,16.3827,5.0,2.0,1.0,3.0,0.0,26.0,1.0,0.0,0.0,1.0,41.57,29.048313070809012,3.1250000000000004,61.369930610534254
A-3437,"1H-1,2,4-triazol-3-amine","InChI=1S/C2H4N4/c3-2-4-1-5-6-2/h1H,(H3,3,4,5,6)",KLSJWNVTNUYHDU-UHFFFAOYSA-N,Nc1ncn[nH]1,0.8326929954000001,0.2911354281144395,4,G5,84.082,-0.6131000000000004,20.795100000000005,6.0,3.0,2.0,4.0,0.0,32.0,1.0,0.0,0.0,1.0,67.59,34.388203767821736,3.049648321313926,109.10850553448522
B-2893,isazofos,"InChI=1S/C9H17ClN3O3PS/c1-5-14-17(18,15-6-2)16-9-11-8(10)13(12-9)7(3)4/h7H,5-6H2,1-4H3",XRHGWAGWAHHFLF-UHFFFAOYSA-N,CCOP(=S)(OCC)Oc1nc(Cl)n(C(C)C)n1,-3.6577,0.1688500000000001,2,G3,313.747,3.1887000000000016,73.58200000000002,18.0,7.0,0.0,9.0,7.0,104.0,1.0,0.0,0.0,1.0,58.4,116.83670937679588,2.8750624593190346,430.6923928886501
B-3431,triazamate,"InChI=1S/C13H22N4O3S/c1-7-20-9(18)8-21-11-14-10(13(2,3)4)15-17(11)12(19)16(5)6/h7-8H2,1-6H3",NKNFWVNSBIXGLL-UHFFFAOYSA-N,CCOC(=O)CSc1nc(C(C)(C)C)nn1C(=O)N(C)C,-2.861,0.0,1,G1,314.41100000000006,1.7605,80.56000000000004,21.0,7.0,0.0,8.0,4.0,118.0,1.0,0.0,0.0,1.0,77.32,128.59218094093006,3.017992304961193,519.9763158000324
B-1782,"4-imidazolidinone, 3-phenyl-2-thioxo-","InChI=1S/C9H8N2OS/c12-8-6-10-9(13)11(8)7-4-2-1-3-5-7/h1-5H,6H2,(H,10,13)",ZZRIQDWDJVLELF-UHFFFAOYSA-N,O=C1CNC(=S)N1c1ccccc1,-3.2425,0.0,1,G1,192.243,0.9077000000000004,54.528700000000015,13.0,2.0,1.0,4.0,1.0,66.0,1.0,1.0,1.0,2.0,32.34,81.35039651021762,2.3555706101534835,333.89215125425096
F-992,N-(furan-2-ylmethyl)-7H-purin-6-amine,"InChI=1S/C10H9N5O/c1-2-7(16-3-1)4-11-9-8-10(13-5-12-8)15-6-14-9/h1-3,5-6H,4H2,(H2,11,12,13,14,15)",QANMHLXAZMSUEX-UHFFFAOYSA-N,c1coc(CNc2ncnc3[nH]cnc23)c1,-3.95,0.0,1,G1,215.216,1.5579999999999996,57.71840000000002,16.0,5.0,2.0,6.0,3.0,80.0,3.0,0.0,0.0,3.0,79.63,90.74739978323151,1.8609258364659544,586.0665899415604
F-213,"5,5-dimethyl-3-(phenylmethyl)imidazolidine-2,4-dione","InChI=1S/C12H14N2O2/c1-12(2)10(15)14(11(16)13-12)8-9-6-4-3-5-7-9/h3-7H,8H2,1-2H3,(H,13,16)",DSBMOVYUOIIPDK-UHFFFAOYSA-N,CC1(C)NC(=O)N(Cc2ccccc2)C1=O,-1.8,0.0,1,G1,218.25600000000003,1.517,59.60270000000003,16.0,2.0,1.0,4.0,2.0,84.0,1.0,1.0,1.0,2.0,49.41,94.24796470624636,2.177572529169906,425.9047177646722
A-886,"6-amino-2-(2,4-dimethylphenyl)-1H-benzo[de]isoquinoline-1,3(2H)-dione","InChI=1S/C20H16N2O2/c1-11-6-9-17(12(2)10-11)22-19(23)14-5-3-4-13-16(21)8-7-15(18(13)14)20(22)24/h3-10H,21H2,1-2H3",FQLZTPSAVDHUKS-UHFFFAOYSA-N,Cc1ccc(N2C(=O)c3cccc4c(N)ccc(c34)C2=O)c(C)c1,-4.8916555333,0.0,1,G1,316.3600000000001,3.8394400000000024,95.41640000000004,24.0,3.0,1.0,4.0,1.0,118.0,3.0,0.0,1.0,4.0,63.4,139.046867728657,2.005101312004899,1014.9834501141484
B-1046,raffinose,"InChI=1S/C18H32O16/c19-1-5-8(22)11(25)13(27)16(31-5)30-3-7-9(23)12(26)14(28)17(32-7)34-18(4-21)15(29)10(24)6(2-20)33-18/h5-17,19-29H,1-4H2/t5-,6-,7-,8+,9-,10-,11+,12+,13-,14-,15+,16+,17-,18+/m1/s1",MUPFEKGTMRGPLJ-ZQSKZDJDSA-N,OC[C@H]1O[C@H](OC[C@H]2O[C@H](O[C@]3(CO)O[C@H](CO)[C@@H](O)[C@@H]3O)[C@H](O)[C@@H](O)[C@@H]2O)[C@H](O)[C@@H](O)[C@H]1O,-0.3962,0.0,1,G1,504.4380000000001,-7.571399999999989,101.2748,34.0,16.0,11.0,16.0,8.0,200.0,0.0,3.0,3.0,3.0,268.67999999999995,192.23007093367468,1.6897643338729131,653.442936810205
A-5227,"(3-{3,5-bis[3-(dimethylamino)propyl]-1,3,5-triazinan-1-yl}propyl)dimethylamine","InChI=1S/C18H42N6/c1-19(2)10-7-13-22-16-23(14-8-11-20(3)4)18-24(17-22)15-9-12-21(5)6/h7-18H2,1-6H3",FZQMJOOSLXFQSU-UHFFFAOYSA-N,CN(C)CCCN1CN(CCCN(C)C)CN(CCCN(C)C)C1,0.1642130702,0.0,1,G1,342.57600000000014,0.6336000000000044,104.23200000000008,24.0,6.0,0.0,6.0,12.0,144.0,0.0,1.0,1.0,1.0,19.440000000000005,150.49643784026293,2.4112643666582994,254.3352357018956
B-714,"1,3,5,-trinitrohexahydro-1,3,5-triazine",InChI=1S/C3H6N6O6/c10-7(11)4-1-5(8(12)13)3-6(2-4)9(14)15/h1-3H2,XTFIVUDBNACUBN-UHFFFAOYSA-N,O=[N+]([O-])N1CN([N+](=O)[O-])CN([N+](=O)[O-])C1,-3.5706,0.1035745816173713,3,G5,222.117,-1.6463999999999996,41.10120000000002,15.0,6.0,0.0,12.0,3.0,84.0,0.0,1.0,1.0,1.0,139.14,81.61214034190796,2.7681908301661284,251.6934821381869
C-2154,etodolac,"InChI=1S/C17H21NO3/c1-3-11-6-5-7-12-13-8-9-21-17(4-2,10-14(19)20)16(13)18-15(11)12/h5-7,18H,3-4,8-10H2,1-2H3,(H,19,20)",NNYBQONXHNTVIJ-UHFFFAOYSA-N,CCc1cccc2c3c([nH]c12)C(CC)(CC(=O)O)OCC3,-3.31,0.0,1,G1,287.3589999999999,3.383000000000002,81.55450000000005,21.0,2.0,2.0,4.0,4.0,112.0,2.0,0.0,1.0,3.0,62.32,123.6701770300334,2.2365005465300696,688.6452033715747
F-1132,4-(4-methylsulfonylphenyl)-3-phenyl-5H-furan-2-one,"InChI=1S/C17H14O4S/c1-22(19,20)14-9-7-12(8-10-14)15-11-21-17(18)16(15)13-5-3-2-4-6-13/h2-10H,11H2,1H3",RZJQGNCSTQAWON-UHFFFAOYSA-N,CS(=O)(=O)c1ccc(C2=C(c3ccccc3)C(=O)OC2)cc1,-4.52,0.5350000000000001,2,G2,314.3620000000001,2.5577000000000005,83.76680000000003,22.0,4.0,0.0,5.0,3.0,112.0,2.0,0.0,1.0,3.0,60.44,128.51823942316784,2.0911663860087306,847.2917680589487
F-98,"3,4-Dihydro-1H-1,4-benzodiazepine-2,5-dione","InChI=1S/C9H8N2O2/c12-8-5-10-9(13)6-3-1-2-4-7(6)11-8/h1-4H,5H2,(H,10,13)(H,11,12)",AZHGGDCFQPMANU-UHFFFAOYSA-N,O=C1CNC(=O)c2ccccc2N1,-2.85,0.0,1,G1,176.175,0.3685000000000002,47.40490000000001,13.0,2.0,2.0,4.0,0.0,66.0,1.0,0.0,1.0,2.0,58.2,74.94316687646118,2.49159521876861,373.6323805179054
F-1097,"3-methyl-3,4-dihydro-1H-1,4-benzodiazepine-2,5-dione","InChI=1S/C10H10N2O2/c1-6-9(13)12-8-5-3-2-4-7(8)10(14)11-6/h2-6H,1H3,(H,11,14)(H,12,13)",LJONQULKOKMKBR-UHFFFAOYSA-N,CC1NC(=O)c2ccccc2NC1=O,-2.38,0.0,1,G1,190.202,0.7569999999999999,51.99990000000002,14.0,2.0,2.0,4.0,0.0,72.0,1.0,0.0,1.0,2.0,58.2,81.3081089908578,2.478639170149799,400.86340121826544
F-1099,"7-chloro-3,4-dihydro-1H-1,4-benzodiazepine-2,5-dione","InChI=1S/C9H7ClN2O2/c10-5-1-2-7-6(3-5)9(14)11-4-8(13)12-7/h1-3H,4H2,(H,11,14)(H,12,13)",DUAONSMGNHXBMX-UHFFFAOYSA-N,O=C1CNC(=O)c2cc(Cl)ccc2N1,-3.05,0.0,1,G1,210.62,1.0219000000000005,52.41490000000002,14.0,2.0,2.0,5.0,0.0,72.0,1.0,0.0,1.0,2.0,58.2,85.24643310334285,2.5193981647099455,417.2730231883477
F-1149,"3-methyl-1-(2,3,4,5-tetrahydroxypentyl)-3,4-dihydro-1,4-benzodiazepine-2,5-dione","InChI=1S/C15H20N2O6/c1-8-15(23)17(6-11(19)13(21)12(20)7-18)10-5-3-2-4-9(10)14(22)16-8/h2-5,8,11-13,18-21H,6-7H2,1H3,(H,16,22)",MHRJDYHNVDCBNF-UHFFFAOYSA-N,CC1NC(=O)c2ccccc2N(CC(O)C(O)C(O)CO)C1=O,-1.51,0.0,1,G1,324.3330000000001,-1.7735,80.82940000000002,23.0,6.0,5.0,8.0,5.0,126.0,1.0,0.0,1.0,2.0,130.33,132.51972605822024,2.3249579754772354,593.0847630016159
F-1150,"1-(2,3,4,5-tetrahydroxypentyl)-3,4-dihydro-1,4-benzodiazepine-2,5-dione","InChI=1S/C14H18N2O6/c17-7-11(19)13(21)10(18)6-16-9-4-2-1-3-8(9)14(22)15-5-12(16)20/h1-4,10-11,13,17-19,21H,5-7H2,(H,15,22)",SSOKMRFNHGGGGS-UHFFFAOYSA-N,O=C1NCC(=O)N(CC(O)C(O)C(O)CO)c2ccccc21,-1.46,0.0,1,G1,310.30600000000004,-2.161999999999998,76.23440000000002,22.0,6.0,5.0,8.0,5.0,120.0,1.0,0.0,1.0,2.0,130.33,126.15478394382362,2.2648920574078013,564.0189732905594
C-727,maprotiline,"InChI=1S/C20H23N/c1-21-14-6-12-20-13-11-15(16-7-2-4-9-18(16)20)17-8-3-5-10-19(17)20/h2-5,7-10,15,21H,6,11-14H2,1H3",QSLMDECMDJKHMQ-UHFFFAOYSA-N,CNCCCC12CCC(c3ccccc31)c1ccccc12,-4.69,0.0,1,G1,277.411,4.211400000000004,87.90170000000006,21.0,1.0,1.0,1.0,4.0,108.0,2.0,0.0,3.0,5.0,12.03,126.94623411728348,1.8805976481796656,610.8929198710237
B-2078,"morpholine, 4,4',4''-phosphinylidynetris-","InChI=1S/C12H24N3O4P/c16-20(13-1-7-17-8-2-13,14-3-9-18-10-4-14)15-5-11-19-12-6-15/h1-12H2",WXMQHPKQCPCDQO-UHFFFAOYSA-N,O=P(N1CCOCC1)(N1CCOCC1)N1CCOCC1,0.2984,0.0,1,G1,305.31500000000005,0.0911000000000012,74.78250000000004,20.0,4.0,0.0,8.0,3.0,116.0,0.0,3.0,3.0,3.0,54.48,119.8144855521028,1.8129924932639865,300.3078350681549
B-2934,4(3h)-pyrimidone,"InChI=1S/C4H4N2O/c7-4-1-2-5-3-6-4/h2-3H,1H2",TZYQTWHRLVDYPL-UHFFFAOYSA-N,O=C1CC=NC=N1,0.586,0.0,1,G1,96.089,0.0158,26.607999999999993,7.0,2.0,0.0,3.0,0.0,36.0,0.0,0.0,1.0,1.0,41.79,40.78041328925415,2.659825742611341,136.62522105691477
A-781,Tazobactam,"InChI=1S/C10H12N4O5S/c1-10(5-13-3-2-11-12-13)8(9(16)17)14-6(15)4-7(14)20(10,18)19/h2-3,7-8H,4-5H2,1H3,(H,16,17)/t7-,8+,10+/m1/s1",LPQZKKCYTLCDGQ-WEDXCCLWSA-N,C[C@]1(Cn2ccnn2)[C@H](C(=O)O)N2C(=O)C[C@H]2S1(=O)=O,-1.8384616763,0.0,1,G1,300.296,-1.523199999999998,64.02160000000002,20.0,7.0,1.0,10.0,3.0,108.0,1.0,2.0,2.0,3.0,122.46,113.637122738197,2.097498683882936,684.5109353405427
F-745,"3-methyl-9-phenylmethoxy-2,4,4~{a},5,6,7,7~{a},13-octahydro-1~{H}-4,12-methanobenzofuro[3,2-e]isoquinoline","InChI=1S/C24H27NO2/c1-25-13-12-24-18-8-5-9-21(24)27-23-20(26-15-16-6-3-2-4-7-16)11-10-17(22(23)24)14-19(18)25/h2-4,6-7,10-11,18-19,21H,5,8-9,12-15H2,1H3",RLNXZCRXJHNVQY-UHFFFAOYSA-N,CN1CCC23c4c5ccc(OCc6ccccc6)c4OC2CCCC3C1C5,-4.22,0.0,1,G1,361.4850000000002,4.3247000000000035,105.39000000000006,27.0,3.0,0.0,3.0,3.0,140.0,2.0,2.0,4.0,6.0,21.700000000000003,160.83140221342055,1.4267979287357242,879.4499534290462
A-2680,Ciaftalan zinc,InChI=1S/C32H16N8.Zn/c1-2-10-18-17(9-1)25-33-26(18)38-28-21-13-5-6-14-22(21)30(35-28)40-32-24-16-8-7-15-23(24)31(36-32)39-29-20-12-4-3-11-19(20)27(34-29)37-25;/h1-16H;/q-2;+2,PODBBOVVOGJETB-UHFFFAOYSA-N,[Zn+2].c1ccc2c(c1)-c1nc3nc(nc4[n-]c(nc5[n-]c(nc-2n1)c1ccccc51)c1ccccc41)-c1ccccc1-3,-6.9837209827999995,0.0,1,G1,577.9260000000002,6.124900000000005,153.9919999999997,41.0,6.0,0.0,9.0,0.0,186.0,7.0,0.0,2.0,9.0,105.54,244.9640246012375,2.5599960348507047e-06,2192.8910969631343
C-1583,cantharidin,"InChI=1S/C10H12O4/c1-9-5-3-4-6(13-5)10(9,2)8(12)14-7(9)11/h5-6H,3-4H2,1-2H3",DHZBEENLJMYSHQ-UHFFFAOYSA-N,CC12C(=O)OC(=O)C1(C)C1CCC2O1,-3.82,0.0,1,G1,196.20199999999997,0.6436,45.20800000000003,14.0,4.0,0.0,4.0,0.0,76.0,0.0,3.0,3.0,3.0,52.6,81.55637125591262,2.210427288035272,318.03116116495596
B-3561,cyclooctane,InChI=1S/C8H16/c1-2-4-6-8-7-5-3-1/h1-8H2,WJTCGQSWYFHTAC-UHFFFAOYSA-N,C1CCCCCCC1,-4.1524,0.0,1,G1,112.216,3.120800000000002,36.93599999999999,8.0,0.0,0.0,0.0,0.0,48.0,0.0,1.0,1.0,1.0,0.0,52.28801467507659,2.0,24.0
C-1580,"cycluron; 3-cyclooctyl-1,1-dimethylurea","InChI=1S/C11H22N2O/c1-13(2)11(14)12-10-8-6-4-3-5-7-9-10/h10H,3-9H2,1-2H3,(H,12,14)",DQZCVNGCTZLGAQ-UHFFFAOYSA-N,CN(C)C(=O)NC1CCCCCCC1,-2.26,0.059492744655686,3,G5,198.30999999999992,2.3705,58.32570000000004,14.0,1.0,1.0,3.0,1.0,82.0,0.0,1.0,1.0,1.0,32.34,86.85405897212159,2.2955379333514614,172.12634489929064
G-542,Cyclooctanol,"InChI=1S/C8H16O/c9-8-6-4-2-1-3-5-7-8/h8-9H,1-7H2",FHADSMKORVFYOS-UHFFFAOYSA-N,OC1CCCCCCC1,-1.29,0.0,1,G1,128.215,2.0915999999999997,38.3258,9.0,1.0,1.0,1.0,0.0,54.0,0.0,1.0,1.0,1.0,20.23,57.0822484272726,2.124788507254725,62.96788691072807
A-2157,oxacyclohexadecan-2-one,InChI=1S/C15H28O2/c16-15-13-11-9-7-5-3-1-2-4-6-8-10-12-14-17-15/h1-14H2,FKUPPRZPSYCDRS-UHFFFAOYSA-N,O=C1CCCCCCCCCCCCCCO1,-5.9037897228,0.7248168605810893,3,G4,240.38699999999992,4.614500000000004,70.98000000000006,17.0,2.0,0.0,2.0,0.0,100.0,0.0,1.0,1.0,1.0,26.3,106.1176768054035,2.1124110421554065,171.36084112383594
A-6005,"2,2'-biindole-3,3'(1H,1'H)-dione","InChI=1S/C16H10N2O2/c19-15-9-5-1-3-7-11(9)17-13(15)14-16(20)10-6-2-4-8-12(10)18-14/h1-8,17-18H/b14-13-",COHYTHOBJLSHDF-YPKPFQOOSA-N,O=C1/C(=C2/Nc3ccccc3C2=O)Nc2ccccc21,-6.7197753001,0.0,1,G1,262.268,2.8148,75.81640000000003,20.0,4.0,2.0,4.0,0.0,96.0,2.0,0.0,2.0,4.0,58.2,114.66976901120834,1.8457036734108805,738.129100962498
C-1038,rotenone,"InChI=1S/C23H22O6/c1-11(2)16-8-14-15(28-16)6-5-12-22(24)21-13-7-18(25-3)19(26-4)9-17(13)27-10-20(21)29-23(12)14/h5-7,9,16,20-21H,1,8,10H2,2-4H3",JUVIOZPCNVVQFO-UHFFFAOYSA-N,C=C(C)C1Cc2c(ccc3c2OC2COc4cc(OC)c(OC)cc4C2C3=O)O1,-4.47,0.0249999999999999,2,G3,394.42300000000023,3.7033000000000023,105.90450000000008,29.0,6.0,0.0,6.0,3.0,150.0,2.0,0.0,3.0,5.0,63.220000000000006,168.5250123387299,1.5816249271358416,1040.1489593987324
B-858,"1,6-dioxaspiro[4,4]nonane",InChI=1S/C7H12O2/c1-3-7(8-5-1)4-2-6-9-7/h1-6H2,YVSCOIUNVKGTND-UHFFFAOYSA-N,C1COC2(C1)CCCO2,-0.1078,0.0,1,G1,128.171,1.3035,33.10299999999999,9.0,2.0,0.0,2.0,0.0,52.0,0.0,2.0,2.0,2.0,18.46,55.1443318661645,2.04093977448264,81.97400337186356
B-2444,"1,6-dioxaspiro[4,4]nonane, 2,2,7,7-tetramethyl-","InChI=1S/C11H20O2/c1-9(2)5-7-11(12-9)8-6-10(3,4)13-11/h5-8H2,1-4H3",NJYRFKSWBDHCQL-UHFFFAOYSA-N,CC1(C)CCC2(CCC(C)(C)O2)O1,-1.9644,0.0,1,G1,184.279,2.860700000000002,51.52700000000004,13.0,2.0,0.0,2.0,0.0,76.0,0.0,2.0,2.0,2.0,18.46,80.60410032375094,2.098094568640847,194.13016856543945
B-2733,"1,6-dioxaspiro[4,4]nonane, 2,7-dimethyl-","InChI=1S/C9H16O2/c1-7-3-5-9(10-7)6-4-8(2)11-9/h7-8H,3-6H2,1-2H3",PUKTVFNQVGOXPI-UHFFFAOYSA-N,CC1CCC2(CCC(C)O2)O1,-0.4487,0.0,1,G1,156.225,2.0805,42.29300000000001,11.0,2.0,0.0,2.0,0.0,64.0,0.0,2.0,2.0,2.0,18.46,67.8742160949577,2.017857381506242,137.64172284395272
B-2921,hexazinone,"InChI=1S/C12H20N4O2/c1-14(2)10-13-11(17)16(12(18)15(10)3)9-7-5-4-6-8-9/h9H,4-8H2,1-3H3",CAWXEEYDBZRFPE-UHFFFAOYSA-N,CN(C)c1nc(=O)n(C2CCCCC2)c(=O)n1C,-0.8834,0.5017,2,G2,252.31799999999993,0.5131999999999994,70.18700000000003,18.0,6.0,0.0,6.0,2.0,100.0,1.0,1.0,1.0,2.0,60.13,105.8718157818583,2.5209699133525185,537.9888841001627
B-3132,azafenidin,"InChI=1S/C15H13Cl2N3O2/c1-2-7-22-13-9-12(10(16)8-11(13)17)20-15(21)19-6-4-3-5-14(19)18-20/h1,8-9H,3-7H2",XOEMATDHVZOBSG-UHFFFAOYSA-N,C#CCOc1cc(-n2nc3n(c2=O)CCCC3)c(Cl)cc1Cl,-4.3251,0.0,1,G1,338.19400000000013,2.6891000000000007,85.11000000000003,22.0,5.0,0.0,7.0,3.0,114.0,2.0,0.0,1.0,3.0,49.05,136.954939072484,2.1020456381869006,817.415769604436
B-299,xanthoxyletin,"InChI=1S/C15H14O4/c1-15(2)7-6-10-12(19-15)8-11-9(14(10)17-3)4-5-13(16)18-11/h4-8H,1-3H3",JSJIIHRNDMLJGK-UHFFFAOYSA-N,COc1c2c(cc3oc(=O)ccc13)OC(C)(C)C=C2,-3.81,0.0,1,G1,258.27299999999997,2.985800000000002,72.77700000000003,19.0,4.0,0.0,4.0,1.0,98.0,2.0,0.0,1.0,3.0,48.67,109.8007155349649,2.361669969172965,737.6293642377806
F-1201,6-hydroxy-5-(phenylmethyl)-2-propan-2-ylmorpholin-3-one,"InChI=1S/C14H19NO3/c1-9(2)12-13(16)15-11(14(17)18-12)8-10-6-4-3-5-7-10/h3-7,9,11-12,14,17H,8H2,1-2H3,(H,15,16)",OVJQWEVXNMGBPH-UHFFFAOYSA-N,CC(C)C1OC(O)C(Cc2ccccc2)NC1=O,-2.28,0.0,1,G1,249.31,1.0870999999999995,67.79450000000004,18.0,3.0,2.0,4.0,3.0,98.0,1.0,1.0,1.0,2.0,58.56,106.96427214649532,2.015914829706804,404.75994791184064
F-1202,6-hydroxy-2-(2-methylpropyl)-5-(phenylmethyl)morpholin-3-one,"InChI=1S/C15H21NO3/c1-10(2)8-13-14(17)16-12(15(18)19-13)9-11-6-4-3-5-7-11/h3-7,10,12-13,15,18H,8-9H2,1-2H3,(H,16,17)",LQLIEICEYDIWLO-UHFFFAOYSA-N,CC(C)CC1OC(O)C(Cc2ccccc2)NC1=O,-2.12,0.0,1,G1,263.337,1.4771999999999998,72.41150000000005,19.0,3.0,2.0,4.0,4.0,104.0,1.0,1.0,1.0,2.0,58.56,113.32921426089192,1.9636981816757535,418.6586802407125
A-1734,bicyclo[2.2.1]hept-2-ene,"InChI=1S/C7H10/c1-2-7-4-3-6(1)5-7/h1-2,6-7H,3-5H2",JFNLZVQOOSMTJK-UHFFFAOYSA-N,C1=CC2CCC1C2,-2.8477212054,0.0,1,G1,94.15699999999998,1.9725,29.970999999999982,7.0,0.0,0.0,0.0,0.0,38.0,0.0,1.0,2.0,2.0,0.0,44.227638374966475,2.2712003045102303,90.60593781761293
A-4945,5-vinylbicyclo[2.2.1]hept-2-ene,"InChI=1S/C9H12/c1-2-8-5-7-3-4-9(8)6-7/h2-4,7-9H,1,5-6H2",INYHZQLKOKTDAI-UHFFFAOYSA-N,C=CC1CC2C=CC1C2,-3.0798864018,0.0,1,G1,120.19499999999996,2.3846000000000007,39.041,9.0,0.0,0.0,0.0,1.0,48.0,0.0,1.0,2.0,2.0,0.0,56.26791957157544,2.1861434650976657,155.42124551085627
A-5853,"2,3-dibutyl 1,4,5,6,7,7-hexachlorobicyclo[2.2.1]hept-5-ene-2,3-dicarboxylate","InChI=1S/C17H20Cl6O4/c1-3-5-7-26-13(24)9-10(14(25)27-8-6-4-2)16(21)12(19)11(18)15(9,20)17(16,22)23/h9-10H,3-8H2,1-2H3",UJAHPBDUQZFDLA-UHFFFAOYSA-N,CCCCOC(=O)C1C(C(=O)OCCCC)C2(Cl)C(Cl)=C(Cl)C1(Cl)C2(Cl)Cl,-7.5095589026,0.0,1,G1,501.061,5.750900000000004,109.05100000000002,27.0,4.0,0.0,10.0,8.0,154.0,0.0,1.0,2.0,2.0,52.60000000000001,188.2467915393239,2.4706119453154725,599.3348877405436
B-662,chlorendic acid,"InChI=1S/C9H4Cl6O4/c10-3-4(11)8(13)2(6(18)19)1(5(16)17)7(3,12)9(8,14)15/h1-2H,(H,16,17)(H,18,19)",DJKGDNKYTKCJKD-UHFFFAOYSA-N,O=C(O)C1C(C(=O)O)C2(Cl)C(Cl)=C(Cl)C1(Cl)C2(Cl)Cl,-2.0457,0.0,1,G1,388.845,3.2335000000000003,72.58860000000003,19.0,2.0,2.0,10.0,2.0,106.0,0.0,1.0,2.0,2.0,74.6,136.68863166952926,2.8385185499997143,486.8028747958183
B-1805,endosulfan diol,"InChI=1S/C9H8Cl6O2/c10-5-6(11)8(13)4(2-17)3(1-16)7(5,12)9(8,14)15/h3-4,16-17H,1-2H2",GTSJHTSVFKEASK-UHFFFAOYSA-N,OCC1C(CO)C2(Cl)C(Cl)=C(Cl)C1(Cl)C2(Cl)Cl,-3.0802,0.0,1,G1,360.8789999999999,3.0489,71.48860000000002,17.0,2.0,2.0,8.0,2.0,98.0,0.0,1.0,2.0,2.0,40.46,128.36558746944175,2.716115159554925,362.94731734049026
D-2066,dimethyl carbate,"InChI=1S/C11H14O4/c1-14-10(12)8-6-3-4-7(5-6)9(8)11(13)15-2/h3-4,6-9H,5H2,1-2H3/t6?,7?,8-,9+",VGQLNJWOULYVFV-WZENYGAOSA-N,COC(=O)[C@@H]1C2C=CC(C2)[C@@H]1C(=O)OC,-1.202,0.0,1,G1,210.229,0.7706999999999999,51.749000000000024,15.0,4.0,0.0,4.0,2.0,82.0,0.0,1.0,2.0,2.0,52.60000000000001,88.23754149165421,2.2395594879594616,290.5496111291175
E-1240,Dimethyl_Carbate,"InChI=1S/C11H14O4/c1-14-10(12)8-6-3-4-7(5-6)9(8)11(13)15-2/h3-4,6-9H,5H2,1-2H3",VGQLNJWOULYVFV-UHFFFAOYSA-N,COC(=O)C1C2C=CC(C2)C1C(=O)OC,-1.2,0.0,1,G1,210.229,0.7706999999999999,51.74900000000003,15.0,4.0,0.0,4.0,2.0,82.0,0.0,1.0,2.0,2.0,52.60000000000001,88.23754149165421,2.239559487959461,290.5496111291175
A-1488,"(8R,9S,13S,14S,17S)-13-ethyl-3-methoxy-6,7,8,9,11,12,14,15,16,17-decahydrocyclopenta[a]phenanthren-17-ol","InChI=1S/C20H28O2/c1-3-20-11-10-16-15-7-5-14(22-2)12-13(15)4-6-17(16)18(20)8-9-19(20)21/h5,7,12,16-19,21H,3-4,6,8-11H2,1-2H3/t16-,17-,18+,19+,20+/m1/s1",CNPGMVAEOUQDBN-SLHNCBLASA-N,CC[C@]12CC[C@@H]3c4ccc(OC)cc4CC[C@H]3[C@@H]1CC[C@@H]2O,-4.875700653,0.0,1,G1,300.44200000000006,4.302300000000004,88.23480000000006,22.0,2.0,1.0,2.0,2.0,120.0,1.0,2.0,3.0,4.0,29.46,133.43087824216468,1.6847772619118833,566.8257136539846
B-6,estradiol,"InChI=1S/C18H24O2/c1-18-9-8-14-13-5-3-12(19)10-11(13)2-4-15(14)16(18)6-7-17(18)20/h3,5,10,14-17,19-20H,2,4,6-9H2,1H3/t14-,15-,16+,17+,18+/m1/s1",VOXZDWNPVJITMN-ZBRFXRBCSA-N,C[C@]12CC[C@@H]3c4ccc(O)cc4CC[C@H]3[C@@H]1CC[C@@H]2O,-4.8789,0.1900983559,2,G3,272.388,3.609200000000002,78.73060000000004,20.0,2.0,2.0,2.0,0.0,108.0,1.0,2.0,3.0,4.0,40.46,120.38168253606062,1.7111998765070122,538.2198018097884