ID,Name,InChI,InChIKey,SMILES,Solubility,SD,Occurrences,Group,MolWt,MolLogP,MolMR,HeavyAtomCount,NumHAcceptors,NumHDonors,NumHeteroatoms,NumRotatableBonds,NumValenceElectrons,NumAromaticRings,NumSaturatedRings,NumAliphaticRings,RingCount,TPSA,LabuteASA,BalabanJ,BertzCT
B-1873,glycidyl n-butyl ether,"InChI=1S/C7H14O2/c1-2-3-4-8-5-7-6-9-7/h7H,2-6H2,1H3",YSUQLAYJZDEMOT-UHFFFAOYSA-N,CCCCOCC1CO1,-0.8135,0.0,1,G1,130.18699999999998,1.2019,35.467,9.0,2.0,0.0,2.0,5.0,54.0,0.0,1.0,1.0,1.0,21.76,56.15016301969372,1.7060432961664127,69.31640245632484
B-2085,"ethanone, 1-(2-methyloxiranyl)-","InChI=1S/C5H8O2/c1-4(6)5(2)3-7-5/h3H2,1-2H3",MQUWXOWAAZHBSG-UHFFFAOYSA-N,CC(=O)C1(C)CO1,0.3797,0.0,1,G1,100.117,0.3642999999999999,25.03799999999999,7.0,2.0,0.0,2.0,1.0,40.0,0.0,1.0,1.0,1.0,29.6,42.4682556614374,2.546611340977067,102.64778179757931
A-3735,"Benzoic acid, 2-hydroxy-5-[[4-[[4-[[8-hydroxy-7-[[4-[(8-hydroxy-3,6-disulfo-1-naphthalenyl)azo]-2-methoxy-5-methylphenyl]azo]-3,6-disulfo-1-naphthalenyl]amino]-6-(phenylamino)-1,3,5-triazin-2-yl]amino]phenyl]azo]-, pentasodium salt","InChI=1S/C50H38N12O18S4.5Na/c1-24-14-36(41(80-2)23-35(24)59-61-38-21-32(82(71,72)73)15-25-16-33(83(74,75)76)22-40(64)43(25)38)60-62-45-42(84(77,78)79)18-26-17-31(81(68,69)70)20-37(44(26)46(45)65)53-50-55-48(51-27-6-4-3-5-7-27)54-49(56-50)52-28-8-10-29(11-9-28)57-58-30-12-13-39(63)34(19-30)47(66)67;;;;;/h3-23,63-65H,1-2H3,(H,66,67)(H,68,69,70)(H,71,72,73)(H,74,75,76)(H,77,78,79)(H3,51,52,53,54,55,56);;;;;/q;5*+1/p-5",HTPJPKXFBLUBPI-UHFFFAOYSA-I,COc1cc(N=Nc2cc(S(=O)(=O)[O-])cc3cc(S(=O)(=O)[O-])cc(O)c23)c(C)cc1N=Nc1c(S(=O)(=O)[O-])cc2cc(S(=O)(=O)[O-])cc(Nc3nc(Nc4ccccc4)nc(Nc4ccc(N=Nc5ccc(O)c(C(=O)[O-])c5)cc4)n3)c2c1O.[Na+].[Na+].[Na+].[Na+].[Na+],-2.4833879664,0.0,1,G1,1333.0979999999995,-6.9112800000000245,288.3338000000002,89.0,30.0,6.0,39.0,18.0,430.0,9.0,0.0,0.0,9.0,487.77,614.9145322817291,3.3855945265858e-06,4792.659164267685
A-1116,"ethyl 2,2-dimethyl-3-(2-methylprop-1-en-1-yl)cyclopropane-1-carboxylate","InChI=1S/C12H20O2/c1-6-14-11(13)10-9(7-8(2)3)12(10,4)5/h7,9-10H,6H2,1-5H3",VIMXTGUGWLAOFZ-UHFFFAOYSA-N,CCOC(=O)C1C(C=C(C)C)C1(C)C,-4.7652682741,0.0,1,G1,196.28999999999996,2.787900000000002,56.82500000000004,14.0,2.0,0.0,2.0,3.0,80.0,0.0,1.0,1.0,1.0,26.3,86.33324743002937,2.6588530245812474,259.49529453537843
A-4532,cyclopropanamine,"InChI=1S/C3H7N/c4-3-1-2-3/h3H,1-2,4H2",HTJDQJBWANPRPF-UHFFFAOYSA-N,NC1CC1,1.2433943163,0.0,1,G1,57.096,0.1074999999999999,17.2094,4.0,1.0,1.0,1.0,0.0,24.0,0.0,1.0,1.0,1.0,26.02,25.803194800106255,2.171098317873574,22.46439344671015
B-1118,"cyclopropane, methoxy-","InChI=1S/C4H8O/c1-5-4-2-3-4/h4H,2-3H2,1H3",ZUVAACFIEPYYOP-UHFFFAOYSA-N,COC1CC1,-0.1176,0.0,1,G1,72.10700000000001,0.7952,20.030999999999995,5.0,1.0,0.0,1.0,1.0,30.0,0.0,1.0,1.0,1.0,9.23,31.941791446997023,1.9989394851788975,30.62919048309069
B-2174,"cyclopropane, ethoxy-","InChI=1S/C5H10O/c1-2-6-5-3-4-5/h5H,2-4H2,1H3",LZTCEQQSARXBHE-UHFFFAOYSA-N,CCOC1CC1,-0.6407,0.0,1,G1,86.13400000000001,1.1853,24.64799999999999,6.0,1.0,0.0,1.0,2.0,36.0,0.0,1.0,1.0,1.0,9.23,38.30673356139363,1.8762858948376273,39.20310343869658
B-2347,"1,1-cyclopropanedicarboxylic acid, 2-methyl-","InChI=1S/C6H8O4/c1-3-2-6(3,4(7)8)5(9)10/h3H,2H2,1H3,(H,7,8)(H,9,10)",SPAYAPLBTKGPME-UHFFFAOYSA-N,CC1CC1(C(=O)O)C(=O)O,0.8412,0.0,1,G1,144.12599999999998,0.1818,31.48559999999999,10.0,2.0,2.0,4.0,2.0,56.0,0.0,1.0,1.0,1.0,74.6,57.46964215076291,2.8334968917905865,181.92449716458776
B-2484,cyclopropyl vinyl ether,"InChI=1S/C5H8O/c1-2-6-5-3-4-5/h2,5H,1,3-4H2",XRCVFFQSIMHODB-UHFFFAOYSA-N,C=COC1CC1,-1.1001,0.0,1,G1,84.11800000000001,1.3089,24.30399999999999,6.0,1.0,0.0,1.0,2.0,34.0,0.0,1.0,1.0,1.0,9.23,37.617130529209376,2.0042659400935183,54.95878455585175
B-2978,empenthrin,"InChI=1S/C18H26O2/c1-8-10-13(5)15(9-2)20-17(19)16-14(11-12(3)4)18(16,6)7/h2,10-11,14-16H,8H2,1,3-7H3/b13-10+",YUGWDVYLFSETPE-JLHYYAGUSA-N,C#CC(OC(=O)C1C(C=C(C)C)C1(C)C)/C(C)=C/CC,-6.3931,0.0,1,G1,274.404,4.126100000000004,82.95300000000005,20.0,2.0,0.0,2.0,5.0,110.0,0.0,1.0,1.0,1.0,26.3,122.83252247608404,2.7577992639647375,470.13691553712937
B-2990,praziquantel,"InChI=1S/C19H24N2O2/c22-18-13-20(19(23)15-7-2-1-3-8-15)12-17-16-9-5-4-6-14(16)10-11-21(17)18/h4-6,9,15,17H,1-3,7-8,10-13H2",FSVJFNAIGNNGKK-UHFFFAOYSA-N,O=C(C1CCCCC1)N1CC(=O)N2CCc3ccccc3C2C1,-2.8927,0.0,1,G1,312.4130000000002,2.5349000000000004,87.75500000000005,23.0,2.0,0.0,4.0,1.0,122.0,1.0,2.0,3.0,4.0,40.620000000000005,137.00086868655947,1.5676188764312609,621.550557109791
A-690,"2-quinolin-2-yl-1H-indene-1,3(2H)-dione","InChI=1S/C18H11NO2/c20-17-12-6-2-3-7-13(12)18(21)16(17)15-10-9-11-5-1-4-8-14(11)19-15/h1-10,16H",IZMJMCDDWKSTTK-UHFFFAOYSA-N,O=C1c2ccccc2C(=O)C1c1ccc2ccccc2n1,-4.7011861265,0.75377624935,2,G2,273.291,3.3976000000000015,79.58700000000003,21.0,3.0,0.0,3.0,1.0,100.0,3.0,0.0,1.0,4.0,47.03,120.80184922799086,1.8649637073068857,863.3687317678382
A-3067,"2-(4-bromo-3-hydroxyquinolin-2-yl)-2,3-dihydro-1H-indene-1,3-dione","InChI=1S/C18H10BrNO3/c19-14-11-7-3-4-8-12(11)20-15(18(14)23)13-16(21)9-5-1-2-6-10(9)17(13)22/h1-8,13,23H",DVBLPJWQXDCAKU-UHFFFAOYSA-N,O=C1c2ccccc2C(=O)C1c1nc2ccccc2c(Br)c1O,-4.8670972664,0.0,1,G1,368.18600000000015,3.865700000000002,88.95180000000002,23.0,4.0,1.0,5.0,1.0,112.0,3.0,0.0,1.0,4.0,67.26,139.4636305858282,1.9605915381292065,961.7232990160747
A-5278,"disodium 2-(1,3-dioxo-2,3-dihydro-1H-inden-2-yl)quinoline-6,8-disulfonate","InChI=1S/C18H11NO8S2.2Na/c20-17-11-3-1-2-4-12(11)18(21)15(17)13-6-5-9-7-10(28(22,23)24)8-14(16(9)19-13)29(25,26)27;;/h1-8,15H,(H,22,23,24)(H,25,26,27);;/q;2*+1/p-2",FZUOVNMHEAPVBW-UHFFFAOYSA-L,O=C1c2ccccc2C(=O)C1c1ccc2cc(S(=O)(=O)[O-])cc(S(=O)(=O)[O-])c2n1.[Na+].[Na+],-0.3778369537,0.0,1,G1,477.3830000000002,-4.786199999999996,95.51340000000002,31.0,9.0,0.0,13.0,3.0,148.0,3.0,0.0,1.0,4.0,161.42999999999998,220.885920493496,1.7066657458671803e-06,1417.6612182722208
B-2429,fenazaflor,"InChI=1S/C15H7Cl2F3N2O2/c16-9-6-11-12(7-10(9)17)22(13(21-11)15(18,19)20)14(23)24-8-4-2-1-3-5-8/h1-7H",ISVQSVPUDBVFFU-UHFFFAOYSA-N,O=C(Oc1ccccc1)n1c(C(F)(F)F)nc2cc(Cl)c(Cl)cc21,-4.4603,0.0,1,G1,375.1330000000001,5.409000000000001,82.619,24.0,4.0,0.0,9.0,1.0,124.0,3.0,0.0,0.0,3.0,44.120000000000005,142.91703196673825,2.167177373898223,923.8541310142092
D-1724,verbenalin,"InChI=1S/C17H24O10/c1-6-3-8(19)11-7(15(23)24-2)5-25-16(10(6)11)27-17-14(22)13(21)12(20)9(4-18)26-17/h5-6,9-14,16-18,20-22H,3-4H2,1-2H3/t6-,9+,10+,11-,12+,13-,14+,16-,17-/m0/s1",HLXRWTJXGMHOFN-XJSNKYLASA-N,COC(=O)C1=CO[C@@H](O[C@@H]2O[C@H](CO)[C@@H](O)[C@H](O)[C@H]2O)[C@H]2[C@@H]1C(=O)C[C@@H]2C,-0.265,0.0,1,G1,388.36900000000014,-1.942599999999998,85.59220000000002,27.0,10.0,4.0,10.0,4.0,152.0,0.0,2.0,3.0,3.0,151.98000000000002,154.82538849230244,1.815012177319334,616.8353814919832
B-3462,"2-thiophenesulfonamide, 4-(4-methoxybenzoyl)-","InChI=1S/C12H11NO4S2/c1-17-10-4-2-8(3-5-10)12(14)9-6-11(18-7-9)19(13,15)16/h2-7H,1H3,(H2,13,15,16)",CNGDZXAWOIPFFX-UHFFFAOYSA-N,COc1ccc(C(=O)c2csc(S(N)(=O)=O)c2)cc1,-4.4733,0.0,1,G1,297.357,1.6351,72.11870000000002,19.0,5.0,1.0,7.0,4.0,100.0,2.0,0.0,0.0,2.0,86.46000000000001,114.23447874374412,2.3071671962460876,701.5855433049934
B-3463,"2-thiophenesulfonamide, 4-(4-hydroxybenzoyl)-","InChI=1S/C11H9NO4S2/c12-18(15,16)10-5-8(6-17-10)11(14)7-1-3-9(13)4-2-7/h1-6,13H,(H2,12,15,16)",OJXOXNIZNJIMLU-UHFFFAOYSA-N,NS(=O)(=O)c1cc(C(=O)c2ccc(O)cc2)cs1,-2.8612,0.0,1,G1,283.33,1.3321000000000005,67.23150000000001,18.0,5.0,2.0,7.0,3.0,94.0,2.0,0.0,0.0,2.0,97.46,107.55022515203667,2.3513857125213105,686.0882215882882
B-3465,"2-thiophenesulfonamide, 4-(4-methylbenzoyl)-","InChI=1S/C12H11NO3S2/c1-8-2-4-9(5-3-8)12(14)10-6-11(17-7-10)18(13,15)16/h2-7H,1H3,(H2,13,15,16)",GYTMHWVFKHLDEA-UHFFFAOYSA-N,Cc1ccc(C(=O)c2csc(S(N)(=O)=O)c2)cc1,-4.4492,0.0,1,G1,281.35800000000006,1.93492,70.30370000000002,18.0,4.0,1.0,6.0,3.0,94.0,2.0,0.0,0.0,2.0,77.23,109.12093351423724,2.3513857125213105,684.3675318824812
F-852,4-[3-(dimethylaminomethyl)-4-hydroxybenzoyl]thiophene-2-sulfonamide,"InChI=1S/C14H16N2O4S2/c1-16(2)7-10-5-9(3-4-12(10)17)14(18)11-6-13(21-8-11)22(15,19)20/h3-6,8,17H,7H2,1-2H3,(H2,15,19,20)",DWCZGULFVVIGBU-UHFFFAOYSA-N,CN(C)Cc1cc(C(=O)c2csc(S(N)(=O)=O)c2)ccc1O,-1.54,0.0,1,G1,340.42600000000004,1.3937,84.62250000000002,22.0,6.0,2.0,8.0,5.0,118.0,2.0,0.0,0.0,2.0,100.7,132.40488516542985,2.353469787882736,810.0003721449017
F-853,4-[4-[(2-methylpropylamino)methyl]benzoyl]thiophene-2-sulfonamide,"InChI=1S/C16H20N2O3S2/c1-11(2)8-18-9-12-3-5-13(6-4-12)16(19)14-7-15(22-10-14)23(17,20)21/h3-7,10-11,18H,8-9H2,1-2H3,(H2,17,20,21)",LMVXPRMBXRSEED-UHFFFAOYSA-N,CC(C)CNCc1ccc(C(=O)c2csc(S(N)(=O)=O)c2)cc1,-2.05,0.0,1,G1,352.48100000000005,2.3721000000000005,92.11140000000005,23.0,5.0,2.0,7.0,7.0,124.0,2.0,0.0,0.0,2.0,89.25999999999999,140.1305641554317,2.067067859102055,777.9116120217641
F-903,4-[3-[(2-methylpropylamino)methyl]benzoyl]thiophene-2-sulfonamide,"InChI=1S/C16H20N2O3S2/c1-11(2)8-18-9-12-4-3-5-13(6-12)16(19)14-7-15(22-10-14)23(17,20)21/h3-7,10-11,18H,8-9H2,1-2H3,(H2,17,20,21)",CQEBIGVQAVNPFP-UHFFFAOYSA-N,CC(C)CNCc1cccc(C(=O)c2csc(S(N)(=O)=O)c2)c1,-2.05,0.0,1,G1,352.48100000000005,2.3721000000000005,92.11140000000005,23.0,5.0,2.0,7.0,7.0,124.0,2.0,0.0,0.0,2.0,89.25999999999999,140.13056415543173,2.1469683167080222,795.1616120217642
F-904,4-[4-(butylaminomethyl)benzoyl]thiophene-2-sulfonamide,"InChI=1S/C16H20N2O3S2/c1-2-3-8-18-10-12-4-6-13(7-5-12)16(19)14-9-15(22-11-14)23(17,20)21/h4-7,9,11,18H,2-3,8,10H2,1H3,(H2,17,20,21)",CWUFUYMCWCMVPX-UHFFFAOYSA-N,CCCCNCc1ccc(C(=O)c2csc(S(N)(=O)=O)c2)cc1,-2.21,0.0,1,G1,352.48100000000005,2.5162000000000004,92.18140000000002,23.0,5.0,2.0,7.0,8.0,124.0,2.0,0.0,0.0,2.0,89.25999999999999,140.13056415543173,2.038619446572056,764.8779654996603
F-905,4-[3-[(3-methylbutylamino)methyl]benzoyl]thiophene-2-sulfonamide,"InChI=1S/C17H22N2O3S2/c1-12(2)6-7-19-10-13-4-3-5-14(8-13)17(20)15-9-16(23-11-15)24(18,21)22/h3-5,8-9,11-12,19H,6-7,10H2,1-2H3,(H2,18,21,22)",MRICEOMWIZSYAC-UHFFFAOYSA-N,CC(C)CCNCc1cccc(C(=O)c2csc(S(N)(=O)=O)c2)c1,-1.5,0.0,1,G1,366.5080000000001,2.7622,96.72840000000004,24.0,5.0,2.0,7.0,8.0,130.0,2.0,0.0,0.0,2.0,89.25999999999999,146.49550626982833,2.0726061796456783,810.7480771597396
F-906,4-[4-hydroxy-3-[(methyl-(2-methylpropyl)amino)methyl]benzoyl]thiophene-2-sulfonamide,"InChI=1S/C17H22N2O4S2/c1-11(2)8-19(3)9-13-6-12(4-5-15(13)20)17(21)14-7-16(24-10-14)25(18,22)23/h4-7,10-11,20H,8-9H2,1-3H3,(H2,18,22,23)",ICZBWKGJZRHLFV-UHFFFAOYSA-N,CC(C)CN(C)Cc1cc(C(=O)c2csc(S(N)(=O)=O)c2)ccc1O,-1.42,0.0,1,G1,382.5070000000001,2.4199,98.40350000000002,25.0,6.0,2.0,8.0,7.0,136.0,2.0,0.0,0.0,2.0,100.7,151.4997115086197,2.2597664103316477,872.5230495000953
C-1514,difenoconazole,"InChI=1S/C19H17Cl2N3O3/c1-13-9-25-19(27-13,10-24-12-22-11-23-24)17-7-6-16(8-18(17)21)26-15-4-2-14(20)3-5-15/h2-8,11-13H,9-10H2,1H3",BQYJATMQXGBDHF-UHFFFAOYSA-N,CC1COC(Cn2cncn2)(c2ccc(Oc3ccc(Cl)cc3)cc2Cl)O1,-4.91,0.2386500000000002,2,G3,406.2690000000001,4.665500000000004,101.17700000000002,27.0,6.0,0.0,8.0,5.0,140.0,3.0,1.0,1.0,4.0,58.400000000000006,166.1385205302702,1.6193497515069293,918.4591276990244
C-1523,clofazimine,"InChI=1S/C27H22Cl2N4/c1-17(2)30-24-16-27-25(15-23(24)31-20-11-7-18(28)8-12-20)32-22-5-3-4-6-26(22)33(27)21-13-9-19(29)10-14-21/h3-17,31H,1-2H3",WDQPAMHFFCXSNU-UHFFFAOYSA-N,CC(C)N=c1cc2n(-c3ccc(Cl)cc3)c3ccccc3nc-2cc1Nc1ccc(Cl)cc1,-6.24,0.0,1,G1,473.40700000000015,7.489800000000006,138.1356999999999,33.0,4.0,1.0,6.0,4.0,164.0,3.0,0.0,2.0,5.0,42.21,202.0591860644695,1.8034503309429024,1469.6398244257894
B-1816,"1h-pyrrole-2-carboxylic acid, 3,5-dimethyl-, eth","InChI=1S/C9H13NO2/c1-4-12-9(11)8-6(2)5-7(3)10-8/h5,10H,4H2,1-3H3",IZSBSZYFPYIJDI-UHFFFAOYSA-N,CCOC(=O)c1[nH]c(C)cc1C,-2.6212,0.0,1,G1,167.208,1.80824,46.22320000000003,12.0,2.0,1.0,3.0,2.0,66.0,1.0,0.0,0.0,1.0,42.09,71.74034144204494,2.86584548320798,288.71868404195976
B-2073,"1h-pyrrole-2-carboxylic acid, 4-ethyl-5-formyl-3","InChI=1S/C11H15NO3/c1-4-8-7(3)10(11(14)15-5-2)12-9(8)6-13/h6,12H,4-5H2,1-3H3",ZPKWGTHVNZEDTD-UHFFFAOYSA-N,CCOC(=O)c1[nH]c(C=O)c(CC)c1C,-2.7186,0.0,1,G1,209.24499999999995,1.87472,56.25170000000003,15.0,3.0,1.0,4.0,4.0,82.0,1.0,0.0,0.0,1.0,59.16,88.63174777088192,3.1439756468869144,379.4299073826789
B-3966,pyrrole,InChI=1S/C4H5N/c1-2-4-5-3-1/h1-5H,KAESVJOAVNADME-UHFFFAOYSA-N,c1cc[nH]c1,-0.1734,0.0,1,G1,67.09100000000001,1.0147,20.792699999999993,5.0,0.0,1.0,1.0,0.0,26.0,1.0,0.0,0.0,1.0,15.79,30.640563540511263,3.1250000000000004,60.12481811269772
C-643,"4-hydroxy-5,6-dihydro-4h-2-sulfamoylthieno[2,3-b]thiopyran","InChI=1S/C7H9NO3S3/c8-14(10,11)6-3-4-5(9)1-2-12-7(4)13-6/h3,5,9H,1-2H2,(H2,8,10,11)",QUBSMEXIPLOOMC-UHFFFAOYSA-N,NS(=O)(=O)c1cc2c(s1)SCCC2O,-2.59,0.0,1,G1,251.354,0.9247000000000004,55.993000000000016,14.0,5.0,2.0,7.0,1.0,78.0,1.0,0.0,1.0,2.0,80.39,90.17877194655811,2.503928380469885,450.74511856965984
B-3335,"pyrimido[5,4-d]pyrimidine-2,4,8(3h)-trione, 1,7-","InChI=1S/C9H10N4O3/c1-11-4-10-5-6(8(11)15)12(2)9(16)13(3)7(5)14/h4H,1-3H3",SYYPSBXVMCETKL-UHFFFAOYSA-N,Cn1cnc2c(=O)n(C)c(=O)n(C)c2c1=O,-1.985,0.0,1,G1,222.204,-1.6690999999999991,57.46600000000001,16.0,7.0,0.0,7.0,0.0,84.0,2.0,0.0,0.0,2.0,78.89,89.2009666781253,3.296071840867869,750.1539787521217
G-1066,Sucrose,"InChI=1S/C12H22O11/c13-1-4-6(16)8(18)9(19)11(21-4)23-12(3-15)10(20)7(17)5(2-14)22-12/h4-11,13-20H,1-3H2",CZMRCDWAGMRECN-UHFFFAOYSA-N,OCC1OC(OC2(CO)OC(CO)C(O)C2O)C(O)C(O)C1O,0.79,0.0,1,G1,342.297,-5.395599999999993,68.64140000000003,23.0,11.0,8.0,11.0,5.0,136.0,0.0,2.0,2.0,2.0,189.52999999999997,130.43645768522254,2.1772696581273263,393.2032272794937
C-2235,"1,3-dipropyl-8-cyclopentylxanthine","InChI=1S/C16H24N4O2/c1-3-9-19-14-12(15(21)20(10-4-2)16(19)22)17-13(18-14)11-7-5-6-8-11/h11H,3-10H2,1-2H3,(H,17,18)",FFBDFADSZUINTG-UHFFFAOYSA-N,CCCn1c(=O)c2[nH]c(C3CCCC3)nc2n(CCC)c1=O,-4.96,0.0,1,G1,304.3940000000001,2.3639,86.40470000000003,22.0,5.0,1.0,6.0,5.0,120.0,2.0,1.0,1.0,3.0,72.68,128.73269129319763,2.2322078088081985,777.7653189463257
C-2582,bromadiolone,"InChI=1S/C30H23BrO4/c31-23-16-14-20(15-17-23)19-10-12-22(13-11-19)26(32)18-25(21-6-2-1-3-7-21)28-29(33)24-8-4-5-9-27(24)35-30(28)34/h1-17,25-26,32-33H,18H2",OWNRRUFOJXFKCU-UHFFFAOYSA-N,O=c1oc2ccccc2c(O)c1C(CC(O)c1ccc(-c2ccc(Br)cc2)cc1)c1ccccc1,-4.45,0.0,1,G1,527.4140000000001,7.183700000000007,141.58859999999984,35.0,4.0,2.0,5.0,6.0,174.0,5.0,0.0,0.0,5.0,70.67,210.80153064670023,1.504070715998948,1507.150749135312
A-877,Cedryl methyl ether,"InChI=1S/C16H28O/c1-11-6-7-12-14(2,3)13-10-16(11,12)9-8-15(13,4)17-5/h11-13H,6-10H2,1-5H3/t11-,12+,13-,15-,16?/m1/s1",HRGPYCVTDOECMG-FETWPZQLSA-N,CO[C@]1(C)CCC23C[C@@H]1C(C)(C)[C@@H]2CC[C@H]3C,-4.7401771795,0.0,1,G1,236.39899999999997,4.263900000000004,70.85700000000006,17.0,1.0,0.0,1.0,1.0,98.0,0.0,3.0,3.0,3.0,9.23,106.30943451269783,2.0431028875845927,334.4168801789137
A-2704,"3-(3,5-di-tert-butyl-4-hydroxyphenyl)-N'-[3-(3,5-di-tert-butyl-4-hydroxyphenyl)propanoyl]propanehydrazide","InChI=1S/C34H52N2O4/c1-31(2,3)23-17-21(18-24(29(23)39)32(4,5)6)13-15-27(37)35-36-28(38)16-14-22-19-25(33(7,8)9)30(40)26(20-22)34(10,11)12/h17-20,39-40H,13-16H2,1-12H3,(H,35,37)(H,36,38)",HCILJBJJZALOAL-UHFFFAOYSA-N,CC(C)(C)c1cc(CCC(=O)NNC(=O)CCc2cc(C(C)(C)C)c(O)c(C(C)(C)C)c2)cc(C(C)(C)C)c1O,-7.04359803,0.6505149977999998,2,G2,552.8000000000003,7.000600000000008,163.94099999999966,40.0,4.0,4.0,6.0,6.0,222.0,2.0,0.0,0.0,2.0,98.66,241.49859593421704,2.0398824430388,1065.034292047354
B-2012,reposal,"InChI=1S/C14H18N2O3/c1-2-14(11(17)15-13(19)16-12(14)18)10-6-8-3-4-9(5-8)7-10/h6,8-9H,2-5,7H2,1H3,(H2,15,16,17,18,19)",MKELYWOVSPVORM-UHFFFAOYSA-N,CCC1(C2=CC3CCC(C2)C3)C(=O)NC(=O)NC1=O,-2.7696,0.063687012455881,3,G5,262.30899999999997,1.4952,67.93640000000002,19.0,3.0,2.0,5.0,2.0,102.0,0.0,2.0,3.0,3.0,75.27000000000001,111.36069268956088,2.008160336598171,474.91954501412886
B-3476,furilazole,"InChI=1S/C11H13Cl2NO3/c1-11(2)14(10(15)9(12)13)6-8(17-11)7-4-3-5-16-7/h3-5,8-9H,6H2,1-2H3",MCNOFYBITGAAGM-UHFFFAOYSA-N,CC1(C)OC(c2ccco2)CN1C(=O)C(Cl)Cl,-3.1498,0.0,1,G1,278.135,2.7193000000000014,63.82000000000003,17.0,3.0,0.0,6.0,2.0,94.0,1.0,1.0,1.0,2.0,42.68,109.41592948433818,2.1759549794168977,402.8588593093177
B-2356,"3-pyridinecarboxamide, n-cyclohexyl-","InChI=1S/C12H16N2O/c15-12(10-5-4-8-13-9-10)14-11-6-2-1-3-7-11/h4-5,8-9,11H,1-3,6-7H2,(H,14,15)",VQRIASKDLZXYTO-UHFFFAOYSA-N,O=C(NC1CCCCC1)c1cccnc1,-2.319,0.0,1,G1,204.27300000000005,2.1441,58.57620000000003,15.0,2.0,1.0,3.0,2.0,80.0,1.0,1.0,1.0,2.0,41.99,89.91119903134232,1.9148932076135217,317.65382107814764
B-1626,peruvoside,"InChI=1S/C30H44O9/c1-16-24(33)26(36-3)25(34)27(38-16)39-19-6-10-29(15-31)18(13-19)4-5-22-21(29)7-9-28(2)20(8-11-30(22,28)35)17-12-23(32)37-14-17/h12,15-16,18-22,24-27,33-35H,4-11,13-14H2,1-3H3/t16?,18-,19+,20-,21?,22?,24-,25?,26?,27-,28-,29-,30+/m1/s1",PMTSPAGBAFCORP-DGORKHCUSA-N,COC1C(O)[C@@H](O[C@H]2CC[C@]3(C=O)C4CC[C@]5(C)[C@@H](C6=CC(=O)OC6)CC[C@]5(O)C4CC[C@@H]3C2)OC(C)[C@H]1O,-3.1373,0.0,1,G1,548.6730000000005,2.2891999999999997,138.12740000000002,39.0,9.0,3.0,9.0,5.0,218.0,0.0,5.0,6.0,6.0,131.75000000000003,229.7579087666746,1.1836244795233528,1014.3920018663738
B-2499,8-cinnolinol,"InChI=1S/C8H6N2O/c11-7-3-1-2-6-4-5-9-10-8(6)7/h1-5,11H",UCYUOFIVFHOUTP-UHFFFAOYSA-N,Oc1cccc2ccnnc12,-2.4089,0.0,1,G1,146.14899999999997,1.3353999999999997,41.20280000000002,11.0,3.0,1.0,3.0,0.0,54.0,2.0,0.0,0.0,2.0,46.010000000000005,63.31505093372592,2.9131611636048604,381.25377134755206
B-2500,"8-cinnolinol, 4-methyl-","InChI=1S/C9H8N2O/c1-6-5-10-11-9-7(6)3-2-4-8(9)12/h2-5,12H,1H3",OLTFEHQRFCVOLY-UHFFFAOYSA-N,Cc1cnnc2c(O)cccc12,-2.6783,0.0,1,G1,160.176,1.6438199999999998,45.93980000000003,12.0,3.0,1.0,3.0,0.0,60.0,2.0,0.0,0.0,2.0,46.010000000000005,69.67999304812253,2.943372852061392,384.5480911891211
A-4023,"7-acetamido-4-hydroxy-3-[[4-[[2-(sulphooxy)ethyl]sulphonyl]phenyl]azo]naphthalene-2-sulphonic acid, sodium salt","InChI=1S/C20H19N3O11S3.2Na/c1-12(24)21-15-4-7-17-13(10-15)11-18(36(28,29)30)19(20(17)25)23-22-14-2-5-16(6-3-14)35(26,27)9-8-34-37(31,32)33;;/h2-7,10-11,22H,8-9H2,1H3,(H,21,24)(H,28,29,30)(H,31,32,33);;/q;2*+1/p-2/b23-19-;;",RVERFAMJEQKFQK-HHUIZHIGSA-L,CC(=O)Nc1ccc2c(c1)C=C(S(=O)(=O)[O-])/C(=N/Nc1ccc(S(=O)(=O)CCOS(=O)(=O)[O-])cc1)C2=O.[Na+].[Na+],-0.3963934895,0.0,1,G1,617.5470000000004,-5.545999999999991,127.95210000000002,39.0,13.0,2.0,19.0,9.0,198.0,2.0,0.0,1.0,3.0,228.32999999999996,268.0328458812757,3.8024959399420567e-06,1653.92433911049
A-2823,2-(carboxyoxy)ethyl hydrogen carbonate,InChI=1S/C3H4O3/c4-3-5-1-2-6-3/h1-2H2,KMTRUDSVKNLOMY-UHFFFAOYSA-N,O=C1OCCO1,0.9461910524,0.0545044738,2,G3,88.062,0.1532,17.299999999999997,6.0,3.0,0.0,3.0,0.0,34.0,0.0,1.0,1.0,1.0,35.53,34.85191666215107,2.3673518510178746,60.43856189774725
A-4030,"4-methyl-1,3-dioxolan-2-one","InChI=1S/C4H6O3/c1-3-2-6-4(5)7-3/h3H,2H2,1H3",RUOJZAUFBMNUDX-UHFFFAOYSA-N,CC1COC(=O)O1,0.371232292,0.06858659655,2,G3,102.08899999999998,0.5417000000000001,21.89499999999999,7.0,3.0,0.0,3.0,0.0,40.0,0.0,1.0,1.0,1.0,35.53,41.21685877654767,2.39706714269016,88.93569696954752
A-5333,"4-(hydroxymethyl)-1,3-dioxolan-2-one","InChI=1S/C4H6O4/c5-1-3-2-7-4(6)8-3/h3,5H,1-2H2",JFMGYULNQJPJCY-UHFFFAOYSA-N,O=C1OCC(CO)O1,0.9277942328,0.0,1,G1,118.088,-0.4859,23.306799999999992,8.0,4.0,1.0,4.0,1.0,46.0,0.0,1.0,1.0,1.0,55.760000000000005,46.01109252874368,2.3210943523789513,100.2114326716684
A-247,2-ethyl-3-hydroxy-4H-pyran-4-one,"InChI=1S/C7H8O3/c1-2-6-7(9)5(8)3-4-10-6/h3-4,9H,2H2,1H3",YIKYNHJUKRTCJL-UHFFFAOYSA-N,CCc1occc(=O)c1O,-1.1759580204,0.0,1,G1,140.13799999999995,0.9078,36.0208,10.0,3.0,1.0,3.0,1.0,54.0,1.0,0.0,0.0,1.0,50.44,57.921860024539,3.278727060179411,274.4248627543818
B-428,"4-oxo-4h-pyran-2,6-dicarboxylic acid","InChI=1S/C7H4O6/c8-3-1-4(6(9)10)13-5(2-3)7(11)12/h1-2H,(H,9,10)(H,11,12)",PBAYDYUZOSNJGU-UHFFFAOYSA-N,O=C(O)c1cc(=O)cc(C(=O)O)o1,-1.1097,0.0,1,G1,184.103,0.0361999999999999,38.8966,13.0,4.0,2.0,6.0,2.0,68.0,1.0,0.0,0.0,1.0,104.81,71.03913797682254,3.350192975980872,379.9860982921891