ID,Name,InChI,InChIKey,SMILES,Solubility,SD,Occurrences,Group,MolWt,MolLogP,MolMR,HeavyAtomCount,NumHAcceptors,NumHDonors,NumHeteroatoms,NumRotatableBonds,NumValenceElectrons,NumAromaticRings,NumSaturatedRings,NumAliphaticRings,RingCount,TPSA,LabuteASA,BalabanJ,BertzCT
A-648,"2,6-di-tert-butyl-4-[(dimethylamino)methyl]phenol","InChI=1S/C17H29NO/c1-16(2,3)13-9-12(11-18(7)8)10-14(15(13)19)17(4,5)6/h9-10,19H,11H2,1-8H3",VMZVBRIIHDRYGK-UHFFFAOYSA-N,CN(C)Cc1cc(C(C)(C)C)c(O)c(C(C)(C)C)c1,-2.7113870277,1.210300847216804,4,G4,263.42499999999995,4.0488000000000035,82.89780000000006,19.0,2.0,1.0,2.0,2.0,108.0,1.0,0.0,0.0,1.0,23.47,117.99983380025904,3.4787084336700778,412.30547357609953
A-656,"N,2-dimethyl-N-phenylbutanamide","InChI=1S/C12H17NO/c1-4-10(2)12(14)13(3)11-8-6-5-7-9-11/h5-10H,4H2,1-3H3",LNODIGSABOGNBQ-UHFFFAOYSA-N,CCC(C)C(=O)N(C)c1ccccc1,-1.5805795126,0.0,1,G1,191.27400000000003,2.695500000000001,59.307000000000045,14.0,1.0,0.0,2.0,3.0,76.0,1.0,0.0,0.0,1.0,20.31,85.54241157612375,2.7565293985710935,294.44985586192786
A-662,"3,5-dimethylphenol","InChI=1S/C8H10O/c1-6-3-7(2)5-8(9)4-6/h3-5,9H,1-2H3",TUAMRELNJMMDMT-UHFFFAOYSA-N,Cc1cc(C)cc(O)c1,-1.3879839049,0.00527509115,2,G3,122.16699999999996,2.0090399999999997,37.5808,9.0,1.0,1.0,1.0,0.0,48.0,1.0,0.0,0.0,1.0,20.23,54.95552110048619,3.165670309917317,165.32984016148868
A-667,"4-allyl-1,2-dimethoxybenzene","InChI=1S/C11H14O2/c1-4-5-9-6-7-10(12-2)11(8-9)13-3/h4,6-8H,1,5H2,2-3H3",ZYEMGPIYFIJGTP-UHFFFAOYSA-N,C=CCc1ccc(OC)c(OC)c1,-2.5520132395,0.0,1,G1,178.231,2.432300000000001,53.44700000000003,13.0,2.0,0.0,2.0,4.0,70.0,1.0,0.0,0.0,1.0,18.46,78.7936011183095,2.975326756105488,292.141794956603
A-677,"tributyl benzene-1,2,4-tricarboxylate","InChI=1S/C21H30O6/c1-4-7-12-25-19(22)16-10-11-17(20(23)26-13-8-5-2)18(15-16)21(24)27-14-9-6-3/h10-11,15H,4-9,12-14H2,1-3H3",RJIFVNWOLLIBJV-UHFFFAOYSA-N,CCCCOC(=O)c1ccc(C(=O)OCCCC)c(C(=O)OCCCC)c1,-4.807173711,0.0,1,G1,378.46500000000015,4.557300000000004,102.01350000000006,27.0,6.0,0.0,6.0,12.0,150.0,1.0,0.0,0.0,1.0,78.90000000000002,160.73073682409807,3.0087265310995903,623.0978890494771
A-697,"Butanal, reaction products with aniline","InChI=1S/C6H7N.C4H8O/c7-6-4-2-1-3-5-6;1-2-3-4-5/h1-5H,7H2;4H,2-3H2,1H3",SRGBNANKQPZXFZ-UHFFFAOYSA-N,CCCC=O.Nc1ccccc1,-4.5021013295,0.0,1,G1,165.23600000000002,2.2542,51.82640000000003,12.0,2.0,1.0,2.0,2.0,66.0,1.0,0.0,0.0,1.0,43.09,73.39841552766912,2.168571397154082e-07,196.25336980724305
A-701,(3Z)-hex-3-en-1-yl 2-hydroxybenzoate,"InChI=1S/C13H16O3/c1-2-3-4-7-10-16-13(15)11-8-5-6-9-12(11)14/h3-6,8-9,14H,2,7,10H2,1H3/b4-3+",IEPWIPZLLIOZLU-ONEGZZNKSA-N,CC/C=C/CCOC(=O)c1ccccc1O,-4.6439814041,0.0,1,G1,220.26800000000003,2.9053000000000018,62.43730000000004,16.0,3.0,1.0,3.0,5.0,86.0,1.0,0.0,0.0,1.0,46.53,95.36569596983564,2.4144167341440093,369.1953853570544
A-706,4-(methoxycarbonyl)-3-nitrobenzoic acid,"InChI=1S/C9H7NO6/c1-16-9(13)6-3-2-5(8(11)12)4-7(6)10(14)15/h2-4H,1H3,(H,11,12)",MIIADZYPHVTLPR-UHFFFAOYSA-N,COC(=O)c1ccc(C(=O)O)cc1[N+](=O)[O-],-2.6570018481,0.0,1,G1,225.156,1.0796,51.39520000000001,16.0,5.0,1.0,7.0,3.0,84.0,1.0,0.0,0.0,1.0,106.74,89.41002836697703,3.35771253075613,467.06705661543674
A-708,"1,3,5-trimethylbenzene","InChI=1S/C9H12/c1-7-4-8(2)6-9(3)5-7/h4-6H,1-3H3",AUHZEENZYGFFBQ-UHFFFAOYSA-N,Cc1cc(C)cc(C)c1,-3.3826570589999996,0.0070911523000003,2,G3,120.19499999999998,2.611860000000001,40.65300000000001,9.0,0.0,0.0,0.0,0.0,48.0,1.0,0.0,0.0,1.0,0.0,56.526229462686786,3.165670309917317,160.80051514850786
A-713,2-chloro-1-methyl-4-nitrobenzene,"InChI=1S/C7H6ClNO2/c1-5-2-3-6(9(10)11)4-7(5)8/h2-4H,1H3",LLYXJBROWQDVMI-UHFFFAOYSA-N,Cc1ccc([N+](=O)[O-])cc1Cl,-3.5442781768,0.0,1,G1,171.583,2.556620000000001,42.84340000000002,11.0,2.0,0.0,4.0,1.0,58.0,1.0,0.0,0.0,1.0,43.14,68.75258718327504,3.1515496683060507,298.4920897763861
A-738,4-tert-butylbenzoic acid,"InChI=1S/C11H14O2/c1-11(2,3)9-6-4-8(5-7-9)10(12)13/h4-7H,1-3H3,(H,12,13)",KDVYCTOWXSLNNI-UHFFFAOYSA-N,CC(C)(C)c1ccc(C(=O)O)cc1,-3.5779623367,1.2010447742208212,3,G4,178.23099999999997,2.682300000000001,52.10130000000003,13.0,1.0,1.0,2.0,1.0,70.0,1.0,0.0,0.0,1.0,37.3,78.21186954371979,3.0087408289185604,303.8573181770073
A-744,"2,3-dimethylphenol","InChI=1S/C8H10O/c1-6-4-3-5-8(9)7(6)2/h3-5,9H,1-2H3",QWBBPBRQALCEIZ-UHFFFAOYSA-N,Cc1cccc(O)c1C,-1.4241960776,0.0341826406499998,2,G3,122.167,2.0090399999999997,37.5808,9.0,1.0,1.0,1.0,0.0,48.0,1.0,0.0,0.0,1.0,20.23,54.955521100486195,3.2478347337367026,195.55766205433733
A-752,2-methyl-4-phenylbutan-2-ol,"InChI=1S/C11H16O/c1-11(2,12)9-8-10-6-4-3-5-7-10/h3-7,12H,8-9H2,1-2H3",YXVSKJDFNJFXAJ-UHFFFAOYSA-N,CC(C)(O)CCc1ccccc1,-1.5556396769999998,0.0,1,G1,164.24800000000002,2.3901000000000003,51.06080000000004,12.0,1.0,1.0,1.0,3.0,66.0,1.0,0.0,0.0,1.0,20.23,74.05034744367602,2.4419972385383093,220.50947032352076
A-756,4-nitrophenyl acetate,"InChI=1S/C8H7NO4/c1-6(10)13-8-4-2-7(3-5-8)9(11)12/h2-5H,1H3",QAUUDNIGJSLPSX-UHFFFAOYSA-N,CC(=O)Oc1ccc([N+](=O)[O-])cc1,-2.5992568252,0.0296284125999999,2,G3,181.147,1.5200999999999998,44.405400000000014,13.0,4.0,0.0,5.0,2.0,68.0,1.0,0.0,0.0,1.0,69.44,74.08933040034063,2.809454194164694,330.5021927396972
A-760,2-amino-6-chloro-4-nitrophenol,"InChI=1S/C6H5ClN2O3.ClH/c7-4-1-3(9(11)12)2-5(8)6(4)10;/h1-2,10H,8H2;1H",HXKQPFKBBNRPEK-UHFFFAOYSA-N,[Cl-].[NH3+]c1cc([N+](=O)[O-])cc(Cl)c1O,-2.6990298363,0.0,1,G1,225.031,-2.1687999999999996,42.3193,13.0,3.0,2.0,7.0,1.0,72.0,1.0,0.0,0.0,1.0,91.01,84.67486277063658,1.4399996774000746e-06,319.6464034755271
A-772,"2-methylpropyl 3,5-diamino-4-chlorobenzoate","InChI=1S/C11H15ClN2O2/c1-6(2)5-16-11(15)7-3-8(13)10(12)9(14)4-7/h3-4,6H,5,13-14H2,1-2H3",KHUIRIRTZCOEMK-UHFFFAOYSA-N,CC(C)COC(=O)c1cc(N)c(Cl)c(N)c1,-2.738284824,0.0053690993999999,2,G3,242.70599999999996,2.3171999999999997,65.39730000000002,16.0,4.0,2.0,5.0,3.0,88.0,1.0,0.0,0.0,1.0,78.34,99.51422864193772,2.843280331678351,381.96619044899546
A-775,benzylhydrazine dihydrochloride,"InChI=1S/C7H10N2.2ClH/c8-9-6-7-4-2-1-3-5-7;;/h1-5,9H,6,8H2;2*1H",MSJHOJKVMMEMNX-UHFFFAOYSA-N,NNCc1ccccc1.[Cl-].[Cl-].[H+].[H+],-1.6467890106,0.0,1,G1,195.09300000000005,-5.117099999999997,39.69310000000002,11.0,2.0,2.0,4.0,2.0,64.0,1.0,0.0,0.0,1.0,38.05,81.9320173788392,-1.0124999593593769e-07,175.40332763407105
A-784,N-methyl-N-phenylformamide,"InChI=1S/C8H9NO/c1-9(7-10)8-5-3-2-4-6-8/h2-7H,1H3",JIKUXBYRTXDNIY-UHFFFAOYSA-N,CN(C=O)c1ccccc1,-1.4947809467,0.0,1,G1,135.16599999999997,1.2792,40.90900000000003,10.0,1.0,0.0,2.0,2.0,52.0,1.0,0.0,0.0,1.0,20.31,60.082643118537305,2.842015015980889,207.75739299455708
A-787,"4-aminobenzene-1,3-disulfonic acid","InChI=1S/C6H7NO6S2/c7-5-2-1-4(14(8,9)10)3-6(5)15(11,12)13/h1-3H,7H2,(H,8,9,10)(H,11,12,13)",IMUUNYPYNWXUBO-UHFFFAOYSA-N,Nc1ccc(S(=O)(=O)O)cc1S(=O)(=O)O,-1.7700930025,0.0,1,G1,253.257,-0.2377999999999998,50.4836,15.0,5.0,3.0,9.0,2.0,84.0,1.0,0.0,0.0,1.0,134.76,86.02856583659091,3.5736560953504455,588.0481762992181
A-790,4-methoxy-3-nitrobenzoic acid,"InChI=1S/C8H7NO5/c1-14-7-3-2-5(8(10)11)4-6(7)9(12)13/h2-4H,1H3,(H,10,11)",ANXBDAFDZSXOPQ-UHFFFAOYSA-N,COc1ccc(C(=O)O)cc1[N+](=O)[O-],-2.6613195143,0.0,1,G1,197.146,1.3016,46.60770000000001,14.0,4.0,1.0,6.0,3.0,74.0,1.0,0.0,0.0,1.0,89.66999999999999,78.88356415253665,3.2744144453933877,387.3180706008288
A-792,2-phenylethyl pivalate,"InChI=1S/C13H18O2/c1-13(2,3)12(14)15-10-9-11-7-5-4-6-8-11/h4-8H,9-10H2,1-3H3",DPVYDTACPLLHCF-UHFFFAOYSA-N,CC(C)(C)C(=O)OCCc1ccccc1,-3.6752800895,0.0,1,G1,206.285,2.8184000000000013,60.560000000000045,15.0,2.0,0.0,2.0,3.0,82.0,1.0,0.0,0.0,1.0,26.3,91.26106524982389,2.3167486080633783,309.0578797466404
A-816,sodium 2-amino-5-nitrobenzenesulfonate,"InChI=1S/C6H6N2O5S.Na/c7-5-2-1-4(8(9)10)3-6(5)14(11,12)13;/h1-3H,7H2,(H,11,12,13);/q;+1/p-1",VTMRGLXTSDVXAE-UHFFFAOYSA-M,Nc1ccc([N+](=O)[O-])cc1S(=O)(=O)[O-].[Na+],-1.7677385178999998,0.0,1,G1,240.1719999999999,-2.9148999999999985,45.472,15.0,6.0,1.0,9.0,2.0,76.0,1.0,0.0,0.0,1.0,126.36,107.46630517176204,1.9599994255335073e-06,486.29566300576977
A-826,3-amino-2-hydroxy-5-nitrobenzene-1-sulfonic acid,"InChI=1S/C6H6N2O6S/c7-4-1-3(8(10)11)2-5(6(4)9)15(12,13)14/h1-2,9H,7H2,(H,12,13,14)",DQIVFTJHYKDOMZ-UHFFFAOYSA-N,Nc1cc([N+](=O)[O-])cc(S(=O)(=O)O)c1O,-1.7662055678,0.0,1,G1,234.18899999999996,0.1292999999999999,48.9882,15.0,6.0,3.0,9.0,2.0,82.0,1.0,0.0,0.0,1.0,143.76000000000002,83.8471393012461,3.5947539886334807,522.6688113613131
A-830,"1,2-dimethyl benzene-1,2-dicarboxylate","InChI=1S/C10H10O4/c1-13-9(11)7-5-3-4-6-8(7)10(12)14-2/h3-6H,1-2H3",NIQCNGHVCWTJSM-UHFFFAOYSA-N,COC(=O)c1ccccc1C(=O)OC,-1.6861579246,0.1321251289156513,3,G5,194.18599999999995,1.2597999999999998,49.12100000000002,14.0,4.0,0.0,4.0,2.0,74.0,1.0,0.0,0.0,1.0,52.60000000000001,81.44130623618467,3.153839931025287,321.89456038916694
A-848,(3Z)-hex-3-en-1-yl benzoate,"InChI=1S/C13H16O2/c1-2-3-4-8-11-15-13(14)12-9-6-5-7-10-12/h3-7,9-10H,2,8,11H2,1H3/b4-3-",BCOXBEHFBZOJJZ-ARJAWSKDSA-N,CC/C=C\CCOC(=O)c1ccccc1,-3.7048974167,0.0,1,G1,204.26900000000003,3.1997000000000018,60.77250000000004,15.0,2.0,0.0,2.0,5.0,80.0,1.0,0.0,0.0,1.0,26.3,90.57146221763963,2.2820220355887875,314.5676547509674
A-851,"1,4-dimethyl 2-aminobenzene-1,4-dicarboxylate","InChI=1S/C10H11NO4/c1-14-9(12)6-3-4-7(8(11)5-6)10(13)15-2/h3-5H,11H2,1-2H3",DSSKDXUDARIMTR-UHFFFAOYSA-N,COC(=O)c1ccc(C(=O)OC)c(N)c1,-3.7185037648,0.0,1,G1,209.20099999999996,0.8420000000000001,53.533400000000015,15.0,5.0,1.0,5.0,2.0,80.0,1.0,0.0,0.0,1.0,78.62,86.7811969331974,3.0826276535835366,400.4089037414234
A-867,"(1,1-dimethylpropyl)benzene","InChI=1S/C11H16/c1-4-11(2,3)10-8-6-5-7-9-10/h5-9H,4H2,1-3H3",QHTJSSMHBLGUHV-UHFFFAOYSA-N,CCC(C)(C)c1ccccc1,-4.5007459195,0.17547295975,2,G3,148.24899999999997,3.374200000000002,49.75900000000004,11.0,0.0,0.0,0.0,2.0,60.0,1.0,0.0,0.0,1.0,0.0,69.25611369148,2.9284445313943723,208.7397365016785
A-887,"(4-tert-butyl-2,6-dimethylphenyl)acetonitrile","InChI=1S/C14H19N/c1-10-8-12(14(3,4)5)9-11(2)13(10)6-7-15/h8-9H,6H2,1-5H3",ZUXNULGHCOXCFL-UHFFFAOYSA-N,Cc1cc(C(C)(C)C)cc(C)c1CC#N,-4.7018118294999995,0.0,1,G1,201.313,3.6670200000000026,63.93300000000004,15.0,1.0,0.0,1.0,1.0,80.0,1.0,0.0,0.0,1.0,23.79,92.74351971613856,3.2692304702845068,379.3224814317526
A-895,methyl 4-methylbenzoate,"InChI=1S/C9H10O2/c1-7-3-5-8(6-4-7)9(10)11-2/h3-6H,1-2H3",QSSJZLPUHJDYKF-UHFFFAOYSA-N,COC(=O)c1ccc(C)cc1,-2.5767203524,0.0224333104315939,3,G5,150.177,1.78162,42.518500000000024,11.0,2.0,0.0,2.0,1.0,58.0,1.0,0.0,0.0,1.0,26.3,65.80129679223742,2.8953480359887567,248.77017257091023
A-898,"benzene-1,2-diamine","InChI=1S/C6H8N2/c7-5-3-1-2-4-6(5)8/h1-4H,7-8H2",GEYOCULIXLDCMW-UHFFFAOYSA-N,Nc1ccccc1N,-0.4396098786999999,0.0516332853200585,3,G5,108.144,0.851,35.2668,8.0,2.0,2.0,2.0,0.0,42.0,1.0,0.0,0.0,1.0,52.04,48.11118451352239,3.134861511345448,162.63833891467198
A-904,sodium 4-amino-3-methylbenzene-1-sulfonate,"InChI=1S/C7H9NO3S.Na/c1-5-4-6(12(9,10)11)2-3-7(5)8;/h2-4H,8H2,1H3,(H,9,10,11);/q;+1/p-1",RVSNUNNCRYLEEM-UHFFFAOYSA-M,Cc1cc(S(=O)(=O)[O-])ccc1N.[Na+],-1.7295012251,0.0,1,G1,209.20199999999997,-2.5146799999999985,43.554600000000015,13.0,4.0,1.0,6.0,1.0,66.0,1.0,0.0,0.0,1.0,83.22,99.17827156365884,1.4399996808000729e-06,402.1987236717895
A-916,"sodium 2-amino-4,6-dinitrophenolate","InChI=1S/C6H5N3O5.Na/c7-4-1-3(8(11)12)2-5(6(4)10)9(13)14;/h1-2,10H,7H2;/q;+1/p-1",UENNEPPWFZYINW-UHFFFAOYSA-M,Nc1cc([N+](=O)[O-])cc([N+](=O)[O-])c1[O-].[Na+],-1.7648130029,0.0,1,G1,221.10399999999996,-2.8371999999999993,43.609199999999994,15.0,6.0,1.0,9.0,2.0,74.0,1.0,0.0,0.0,1.0,135.36,105.28487863641725,1.9599994213335105e-06,421.4735477435591
A-917,4-chloro-1-(4-fluorophenyl)butan-1-one,"InChI=1S/C10H10ClFO/c11-7-1-2-10(13)8-3-5-9(12)6-4-8/h3-6H,1-2,7H2",HXAOUYGZEOZTJO-UHFFFAOYSA-N,O=C(CCCCl)c1ccc(F)cc1,-2.7226339225,0.0,1,G1,200.63999999999996,3.027400000000002,50.68450000000002,13.0,1.0,0.0,3.0,4.0,70.0,1.0,0.0,0.0,1.0,17.07,81.52149530693507,2.6111712506381335,281.48114931490306
A-932,4-methanesulfonyl-1-methyl-2-nitrobenzene,"InChI=1S/C8H9NO4S/c1-6-3-4-7(14(2,12)13)5-8(6)9(10)11/h3-5H,1-2H3",OXBDLEXAVKAJFD-UHFFFAOYSA-N,Cc1ccc(S(C)(=O)=O)cc1[N+](=O)[O-],-2.7647010816,0.0,1,G1,215.23,1.30672,50.943200000000026,14.0,4.0,0.0,6.0,2.0,76.0,1.0,0.0,0.0,1.0,77.28,81.43966145257656,3.4165333761642867,478.1146884592122
A-940,"2-chloro-1,4-dimethoxybenzene","InChI=1S/C8H9ClO2/c1-10-6-3-4-8(11-2)7(9)5-6/h3-5H,1-2H3",QMXZSRVFIWACJH-UHFFFAOYSA-N,COc1ccc(OC)c(Cl)c1,-2.6724024043,0.0,1,G1,172.611,2.3571999999999997,44.55600000000002,11.0,2.0,0.0,3.0,2.0,60.0,1.0,0.0,0.0,1.0,18.46,70.69164403418561,2.992962951841593,247.8474159248874
A-950,butoxybenzene,"InChI=1S/C10H14O/c1-2-3-9-11-10-7-5-4-6-8-10/h4-8H,2-3,9H2,1H3",YFNONBGXNFCTMM-UHFFFAOYSA-N,CCCCOc1ccccc1,-3.6132495633,0.0,1,G1,150.22099999999998,2.8655000000000017,46.845000000000034,11.0,1.0,0.0,1.0,4.0,60.0,1.0,0.0,0.0,1.0,9.23,68.00471680659028,2.2758012873675093,181.32408233692004
A-954,"1,2,4-trichlorobenzene",InChI=1S/C6H3Cl3/c7-4-1-2-5(8)6(9)3-4/h1-3H,PBKONEOXTCPAFI-UHFFFAOYSA-N,Clc1ccc(Cl)c(Cl)c1,-3.7024520783,0.1240415558335194,8,G5,181.449,3.6468000000000007,41.47200000000001,9.0,0.0,0.0,3.0,0.0,48.0,1.0,0.0,0.0,1.0,0.0,68.34120180014197,3.1716780304409156,219.54299954784685
A-961,"(2E)-3-(3,4,5-trimethoxyphenyl)prop-2-enoic acid","InChI=1S/C12H14O5/c1-15-9-6-8(4-5-11(13)14)7-10(16-2)12(9)17-3/h4-7H,1-3H3,(H,13,14)/b5-4+",YTFVRYKNXDADBI-SNAWJCMRSA-N,COc1cc(/C=C/C(=O)O)cc(OC)c1OC,-2.8304701939999997,0.0,1,G1,238.23899999999995,1.8102,62.76780000000003,17.0,4.0,1.0,5.0,5.0,92.0,1.0,0.0,0.0,1.0,64.99000000000001,99.22784431445278,3.2179156762590817,411.5172830850008
A-973,2-tert-butyl-5-methylphenol,"InChI=1S/C11H16O/c1-8-5-6-9(10(12)7-8)11(2,3)4/h5-7,12H,1-4H3",XOUQAVYLRNOXDO-UHFFFAOYSA-N,Cc1ccc(C(C)(C)C)c(O)c1,-2.672674663,0.0,1,G1,164.248,2.998120000000001,51.54380000000004,12.0,1.0,1.0,1.0,0.0,66.0,1.0,0.0,0.0,1.0,20.23,74.050347443676,3.189211511901671,281.54585362509573
A-974,dimethyl 2-nitroterephthalate,"InChI=1S/C10H9NO6/c1-16-9(12)6-3-4-7(10(13)17-2)8(5-6)11(14)15/h3-5H,1-2H3",PAYWCKGMOYQZAW-UHFFFAOYSA-N,COC(=O)c1ccc(C(=O)OC)c([N+](=O)[O-])c1,-2.8359048818,0.0,1,G1,239.18299999999996,1.168,55.77540000000001,17.0,6.0,0.0,7.0,3.0,90.0,1.0,0.0,0.0,1.0,95.74,96.09428195868448,3.3153231565482364,481.6845087606219
A-988,2-tert-butyl-4-methylphenol,"InChI=1S/C11H16O/c1-8-5-6-10(12)9(7-8)11(2,3)4/h5-7,12H,1-4H3",IKEHOXWJQXIQAG-UHFFFAOYSA-N,Cc1ccc(O)c(C(C)(C)C)c1,-2.6917536232,0.0,1,G1,164.248,2.998120000000001,51.54380000000004,12.0,1.0,1.0,1.0,0.0,66.0,1.0,0.0,0.0,1.0,20.23,74.050347443676,3.231425013090014,281.54585362509573
A-989,"N,N,N-trimethylanilinium chloride","InChI=1S/C9H14N.ClH/c1-10(2,3)9-7-5-4-6-8-9;/h4-8H,1-3H3;1H/q+1;/p-1",MQAYPFVXSPHGJM-UHFFFAOYSA-M,C[N+](C)(C)c1ccccc1.[Cl-],0.2877472964999999,0.0,1,G1,171.67100000000002,-1.1126999999999976,46.00800000000004,11.0,0.0,0.0,2.0,1.0,62.0,1.0,0.0,0.0,1.0,0.0,74.64912787203491,9.99999827000031e-07,200.55275983338595
A-994,3-methyl-4-phenylbutan-2-ol,"InChI=1S/C11H16O/c1-9(10(2)12)8-11-6-4-3-5-7-11/h3-7,9-10,12H,8H2,1-2H3",VSIXJPFQJMODCS-UHFFFAOYSA-N,CC(O)C(C)Cc1ccccc1,-1.6969729899,0.0,1,G1,164.24800000000002,2.2460000000000004,50.99080000000004,12.0,1.0,1.0,1.0,3.0,66.0,1.0,0.0,0.0,1.0,20.23,74.05034744367602,2.52667600839138,215.7055387053221
A-997,1-chloro-4-(trifluoromethyl)benzene,"InChI=1S/C7H4ClF3/c8-6-3-1-5(2-4-6)7(9,10)11/h1-4H",QULYNCCPRWKEMF-UHFFFAOYSA-N,FC(F)(F)c1ccc(Cl)cc1,-3.7276952246,0.0,1,G1,180.556,3.3588000000000013,36.454000000000015,11.0,0.0,0.0,4.0,0.0,60.0,1.0,0.0,0.0,1.0,0.0,66.59621766955395,2.993754788259927,236.85775327612672
A-1004,"2,4-di-tert-butylphenol","InChI=1S/C14H22O/c1-13(2,3)10-7-8-12(15)11(9-10)14(4,5)6/h7-9,15H,1-6H3",ICKWICRCANNIBI-UHFFFAOYSA-N,CC(C)(C)c1ccc(O)c(C(C)(C)C)c1,-3.7960463334,0.0127731666999997,2,G3,206.32899999999995,3.987200000000003,65.50680000000006,15.0,1.0,1.0,1.0,0.0,84.0,1.0,0.0,0.0,1.0,20.23,93.14517378686584,3.2993579461545743,350.58194170955596
A-1005,3-(4-tert-butylphenyl)-2-methylpropanal,"InChI=1S/C14H20O/c1-11(10-15)9-12-5-7-13(8-6-12)14(2,3)4/h5-8,10-11H,9H2,1-4H3",SDQFDHOLCGWZPU-UHFFFAOYSA-N,CC(C=O)Cc1ccc(C(C)(C)C)cc1,-3.7917820609,0.0673492869499998,2,G3,204.31299999999996,3.361600000000002,64.07400000000004,15.0,1.0,0.0,1.0,3.0,82.0,1.0,0.0,0.0,1.0,17.07,92.5124621347136,2.768132115506002,316.1870914248574
A-1013,tert-butyl benzenecarboperoxoate,"InChI=1S/C11H14O3/c1-11(2,3)14-13-10(12)9-7-5-4-6-8-9/h4-8H,1-3H3",GJBRNHKUVLOCEB-UHFFFAOYSA-N,CC(C)(C)OOC(=O)c1ccccc1,-2.7764329492,0.0,1,G1,194.23,2.573500000000001,52.69550000000004,14.0,3.0,0.0,3.0,2.0,76.0,1.0,0.0,0.0,1.0,35.53,83.57402156627585,2.523434610495391,298.05872454975145
A-1029,3-[hydroxy(phenyl)phosphoryl]propanoic acid,"InChI=1S/C9H11O4P/c10-9(11)6-7-14(12,13)8-4-2-1-3-5-8/h1-5H,6-7H2,(H,10,11)(H,12,13)",MORLYCDUFHDZKO-UHFFFAOYSA-N,O=C(O)CCP(=O)(O)c1ccccc1,-0.8283051545000001,1.0658967177567118,3,G4,214.15700000000004,1.057,53.021100000000025,14.0,2.0,2.0,5.0,4.0,76.0,1.0,0.0,0.0,1.0,74.6,81.6524892253432,2.759325797670845,360.3345205930412
A-1041,2-aminobenzenesulfonic acid,"InChI=1S/C6H7NO3S/c7-5-3-1-2-4-6(5)11(8,9)10/h1-4H,7H2,(H,8,9,10)",ZMCHBSMFKQYNKA-UHFFFAOYSA-N,Nc1ccccc1S(=O)(=O)O,-1.7471686412,0.0,1,G1,173.19299999999998,0.5155000000000001,40.669,11.0,3.0,2.0,5.0,1.0,60.0,1.0,0.0,0.0,1.0,80.39,64.3999298265503,3.3721948109608206,357.8450744935719
A-1043,4-acetamidobenzene-1-sulfonyl chloride,"InChI=1S/C8H8ClNO3S/c1-6(11)10-7-2-4-8(5-3-7)14(9,12)13/h2-5H,1H3,(H,10,11)",GRDXCFKBQWDAJH-UHFFFAOYSA-N,CC(=O)Nc1ccc(S(=O)(=O)Cl)cc1,-2.8772524161,0.5442109514,2,G2,233.676,1.5724999999999998,53.78450000000002,14.0,3.0,1.0,6.0,2.0,76.0,1.0,0.0,0.0,1.0,63.24,86.30513949380608,2.951896247179317,438.159125541551
A-1051,"1,4-dimethyl benzene-1,4-dicarboxylate","InChI=1S/C10H10O4/c1-13-9(11)7-3-5-8(6-4-7)10(12)14-2/h3-6H,1-2H3",WOZVHXUHUFLZGK-UHFFFAOYSA-N,COC(=O)c1ccc(C(=O)OC)cc1,-3.796856222,0.1822521048414581,4,G5,194.186,1.2597999999999998,49.12100000000002,14.0,4.0,0.0,4.0,2.0,74.0,1.0,0.0,0.0,1.0,52.60000000000001,81.44130623618467,2.8864821283777804,304.64456038916694
A-1060,"2-amino-3,5-dimethylbenzene-1-sulfonic acid","InChI=1S/C8H11NO3S/c1-5-3-6(2)8(9)7(4-5)13(10,11)12/h3-4H,9H2,1-2H3,(H,10,11,12)",CFCXQQUQLZIZPI-UHFFFAOYSA-N,Cc1cc(C)c(N)c(S(=O)(=O)O)c1,-1.8195435039,0.0,1,G1,201.247,1.13234,50.143000000000015,13.0,3.0,2.0,5.0,1.0,72.0,1.0,0.0,0.0,1.0,80.39,77.12981405534352,3.5578708456539703,436.94751570166727
A-1073,3-nitrobenzoic acid,"InChI=1S/C7H5NO4/c9-7(10)5-2-1-3-6(4-5)8(11)12/h1-4H,(H,9,10)",AFPHTEQTJZKQAQ-UHFFFAOYSA-N,O=C(O)c1cccc([N+](=O)[O-])c1,-1.7459071723,0.0523660280083443,5,G5,167.11999999999995,1.293,40.05570000000001,12.0,3.0,1.0,5.0,2.0,62.0,1.0,0.0,0.0,1.0,80.44,67.40507680863314,3.121805775248301,304.683190204761
A-1091,"2,6-di-tert-butylphenol","InChI=1S/C14H22O/c1-13(2,3)10-8-7-9-11(12(10)15)14(4,5)6/h7-9,15H,1-6H3",DKCPKDPYUFEZCP-UHFFFAOYSA-N,CC(C)(C)c1cccc(C(C)(C)C)c1O,-4.7135873776,0.1033333694058104,4,G5,206.32899999999995,3.987200000000003,65.50680000000006,15.0,1.0,1.0,1.0,0.0,84.0,1.0,0.0,0.0,1.0,20.23,93.14517378686584,3.368901573147506,318.331941709556
A-1135,"2,4-bis(2-methylbutan-2-yl)phenol","InChI=1S/C16H26O/c1-7-15(3,4)12-9-10-14(17)13(11-12)16(5,6)8-2/h9-11,17H,7-8H2,1-6H3",WMVJWKURWRGJCI-UHFFFAOYSA-N,CCC(C)(C)c1ccc(O)c(C(C)(C)CC)c1,-4.8928048539999995,0.0,1,G1,234.38299999999995,4.767400000000005,74.74080000000006,17.0,1.0,1.0,1.0,4.0,96.0,1.0,0.0,0.0,1.0,20.23,105.87505801565904,3.2956344601056498,388.5116940574249
A-1144,methyl 3-phenylacrylate,"InChI=1S/C10H10O2/c1-12-10(11)8-7-9-5-3-2-4-6-9/h2-8H,1H3/b8-7+",CCRCUPLGCSFEDV-BQYQJAHWSA-N,COC(=O)/C=C/c1ccccc1,-2.7343475301,0.035763211086825,3,G5,162.188,1.8728,47.492000000000026,12.0,2.0,0.0,2.0,2.0,62.0,1.0,0.0,0.0,1.0,26.3,71.47663587444978,2.637870167687777,275.14987048988627