ID,Name,InChI,InChIKey,SMILES,Solubility,SD,Occurrences,Group,MolWt,MolLogP,MolMR,HeavyAtomCount,NumHAcceptors,NumHDonors,NumHeteroatoms,NumRotatableBonds,NumValenceElectrons,NumAromaticRings,NumSaturatedRings,NumAliphaticRings,RingCount,TPSA,LabuteASA,BalabanJ,BertzCT
B-1932,endothion,"InChI=1S/C9H13O6PS/c1-12-9-5-15-7(4-8(9)10)6-17-16(11,13-2)14-3/h4-5H,6H2,1-3H3",YCAGGFXSFQFVQL-UHFFFAOYSA-N,COc1coc(CSP(=O)(OC)OC)cc1=O,0.7286,0.0,1,G1,280.238,2.2825,64.44950000000003,17.0,7.0,0.0,8.0,6.0,96.0,1.0,0.0,0.0,1.0,74.97,102.53278125448846,2.737375681509143,462.79903741452904
B-2158,"4h-pyran-3,5-dicarboxylic acid, 2,6-dimethyl-4-o","InChI=1S/C13H16O6/c1-5-17-12(15)9-7(3)19-8(4)10(11(9)14)13(16)18-6-2/h5-6H2,1-4H3",JISSLTOKQRHSMJ-UHFFFAOYSA-N,CCOC(=O)c1c(C)oc(C)c(C(=O)OCC)c1=O,-1.5255,0.0,1,G1,268.26499999999993,1.61004,66.36500000000002,19.0,6.0,0.0,6.0,4.0,104.0,1.0,0.0,0.0,1.0,82.81,109.86741361782391,3.4288325241650823,509.7372488504878
D-1325,maltol,"InChI=1S/C6H6O3/c1-4-6(8)5(7)2-3-9-4/h2-3,8H,1H3",XPCTZQVDEJYUGT-UHFFFAOYSA-N,Cc1occc(=O)c1O,-1.063,0.0,1,G1,126.11099999999998,0.6538199999999998,31.379799999999996,9.0,3.0,1.0,3.0,0.0,48.0,1.0,0.0,0.0,1.0,50.44,51.5569179101424,3.4257312155228083,261.2506372810443
C-2201,flumequine,"InChI=1S/C14H12FNO3/c1-7-2-3-8-4-9(15)5-10-12(8)16(7)6-11(13(10)17)14(18)19/h4-7H,2-3H2,1H3,(H,18,19)",DPSPPJIUMHPXMA-UHFFFAOYSA-N,CC1CCc2cc(F)cc3c(=O)c(C(=O)O)cn1c23,-3.74,0.0050000000000001,2,G3,261.25199999999995,2.346,68.15730000000002,19.0,3.0,1.0,5.0,1.0,98.0,2.0,0.0,1.0,3.0,59.3,107.6443798924376,2.534425296750556,763.3556201182146
B-293,quininone,"InChI=1S/C20H22N2O2/c1-3-13-12-22-9-7-14(13)10-19(22)20(23)16-6-8-21-18-5-4-15(24-2)11-17(16)18/h3-6,8,11,13-14,19H,1,7,9-10,12H2,2H3",SRFCUPVBYYAMIL-UHFFFAOYSA-N,C=CC1CN2CCC1CC2C(=O)c1ccnc2ccc(OC)cc12,-5.0313,0.0,1,G1,322.408,3.3225000000000025,94.39750000000004,24.0,4.0,0.0,4.0,4.0,124.0,2.0,3.0,3.0,5.0,42.43,141.68071455105266,1.70209479865503,801.3254722669024
C-2211,cinchoninone,"InChI=1S/C19H20N2O/c1-2-13-12-21-10-8-14(13)11-18(21)19(22)16-7-9-20-17-6-4-3-5-15(16)17/h2-7,9,13-14,18H,1,8,10-12H2",AEFOLTVWSRMXMW-UHFFFAOYSA-N,C=CC1CN2CCC1CC2C(=O)c1ccnc2ccccc12,-3.19,0.0,1,G1,292.382,3.313900000000002,87.84550000000006,22.0,3.0,0.0,3.0,3.0,112.0,2.0,3.0,3.0,5.0,33.2,130.2022272071492,1.686193435510598,733.7975324046537
B-2705,bioresmethrin,"InChI=1S/C22H26O3/c1-15(2)10-19-20(22(19,3)4)21(23)25-14-17-12-18(24-13-17)11-16-8-6-5-7-9-16/h5-10,12-13,19-20H,11,14H2,1-4H3",VEMKTZHHVJILDY-UHFFFAOYSA-N,CC(C)=CC1C(C(=O)OCc2coc(Cc3ccccc3)c2)C1(C)C,-6.0524,0.4492500000000001,2,G3,338.44700000000006,5.1520000000000055,97.94400000000007,25.0,3.0,0.0,3.0,6.0,132.0,2.0,1.0,1.0,3.0,39.44,149.2417651062343,1.5422099361914814,763.57983714686
F-742,1-[(4-chlorophenyl)-phenylmethyl]-4-[(3-methylphenyl)methyl]piperazine,"InChI=1S/C25H27ClN2/c1-20-6-5-7-21(18-20)19-27-14-16-28(17-15-27)25(22-8-3-2-4-9-22)23-10-12-24(26)13-11-23/h2-13,18,25H,14-17,19H2,1H3",OCJYIGYOJCODJL-UHFFFAOYSA-N,Cc1cccc(CN2CCN(C(c3ccccc3)c3ccc(Cl)cc3)CC2)c1,-4.63,0.0,1,G1,390.9580000000002,5.555620000000006,117.76600000000003,28.0,2.0,0.0,3.0,5.0,144.0,3.0,1.0,1.0,4.0,6.48,172.91728874616047,1.484664589559198,883.9361145728091
C-2092,antazoline,"InChI=1S/C17H19N3/c1-3-7-15(8-4-1)13-20(14-17-18-11-12-19-17)16-9-5-2-6-10-16/h1-10H,11-14H2,(H,18,19)",REYFJDPCWQRWAA-UHFFFAOYSA-N,c1ccc(CN(CC2=NCCN2)c2ccccc2)cc1,-2.6,0.0,1,G1,265.36,2.6949000000000005,84.23870000000005,20.0,3.0,1.0,3.0,5.0,102.0,2.0,0.0,1.0,3.0,27.63,119.51239508368636,1.7935916677564712,563.3036923427362
F-1094,3-(2-dimethylamino-2-iminoethyl)sulfanyl-6-(1-hydroxyethyl)-4-methyl-7-oxo-1-azabicyclo[3.2.0]hept-2-ene-2-carboxylic acid,"InChI=1S/C14H21N3O4S/c1-6-10-9(7(2)18)13(19)17(10)11(14(20)21)12(6)22-5-8(15)16(3)4/h6-7,9-10,15,18H,5H2,1-4H3,(H,20,21)",VBVXPLDOYIOZGP-UHFFFAOYSA-N,CC(O)C1C(=O)N2C(C(=O)O)=C(SCC(=N)N(C)C)C(C)C12,-0.28,0.0,1,G1,327.40600000000006,0.4121700000000001,83.50230000000003,22.0,5.0,3.0,8.0,5.0,122.0,0.0,1.0,2.0,2.0,104.93,133.02187324525906,2.255959143309589,558.2912039223412
I-83,sulindac_form_II,"InChI=1S/C20H17FO3S/c1-12-17(9-13-3-6-15(7-4-13)25(2)24)16-8-5-14(21)10-19(16)18(12)11-20(22)23/h3-10H,11H2,1-2H3,(H,22,23)/b17-9+",MLKXDPUZXIRXEP-RQZCQDPDSA-N,CC1=C(CC(=O)O)c2cc(F)ccc2/C1=C/c1ccc(S(C)=O)cc1,-4.5,0.4099999999999999,2,G3,356.41800000000006,4.3655000000000035,97.89220000000005,25.0,2.0,1.0,5.0,4.0,128.0,2.0,0.0,1.0,3.0,54.37,147.5185424815781,2.1011120578982485,939.913669117438
A-4613,diphenyl methylphosphonate,"InChI=1S/C13H13O3P/c1-17(14,15-12-8-4-2-5-9-12)16-13-10-6-3-7-11-13/h2-11H,1H3",HPUPGAFDTWIMBR-UHFFFAOYSA-N,CP(=O)(Oc1ccccc1)Oc1ccccc1,-2.2017086736,0.0,1,G1,248.218,3.9673000000000025,67.67050000000005,17.0,3.0,0.0,4.0,4.0,88.0,2.0,0.0,0.0,2.0,35.53,100.54347031531924,2.0749803227072334,465.20248855462495
B-667,octyldiphenyl phosphate,"InChI=1S/C20H27O4P/c1-2-3-4-5-6-13-18-22-25(21,23-19-14-9-7-10-15-19)24-20-16-11-8-12-17-20/h7-12,14-17H,2-6,13,18H2,1H3",YAFOVCNAQTZDQB-UHFFFAOYSA-N,CCCCCCCCOP(=O)(Oc1ccccc1)Oc1ccccc1,-6.4131,0.0,1,G1,362.40600000000006,6.629600000000007,101.07450000000006,25.0,4.0,0.0,5.0,12.0,136.0,2.0,0.0,0.0,2.0,44.760000000000005,150.29828060372955,1.9078310024202128,585.1591174087094
B-668,diphenylmethyl phosphate,"InChI=1S/C13H13O4P/c1-15-18(14,16-12-8-4-2-5-9-12)17-13-10-6-3-7-11-13/h2-11H,1H3",VOWPVJACXJNHBC-UHFFFAOYSA-N,COP(=O)(Oc1ccccc1)Oc1ccccc1,-2.1209,0.0,1,G1,264.217,3.898900000000002,68.75550000000004,18.0,4.0,0.0,5.0,5.0,94.0,2.0,0.0,0.0,2.0,44.760000000000005,105.74368580295334,2.1376638619969057,481.7022121515442
B-1644,2-ethylhexyl diphenyl phosphate,"InChI=1S/C20H27O4P/c1-3-5-12-18(4-2)17-22-25(21,23-19-13-8-6-9-14-19)24-20-15-10-7-11-16-20/h6-11,13-16,18H,3-5,12,17H2,1-2H3",CGSLYBDCEGBZCG-UHFFFAOYSA-N,CCCCC(CC)COP(=O)(Oc1ccccc1)Oc1ccccc1,-5.2804,0.7873224311999998,2,G2,362.40600000000006,6.485500000000006,101.00450000000006,25.0,4.0,0.0,5.0,11.0,136.0,2.0,0.0,0.0,2.0,44.760000000000005,150.29828060372955,2.0892706475281493,599.7604337413646
B-2724,isodecyl diphenyl phosphate,"InChI=1S/C22H31O4P/c1-20(2)14-8-4-3-5-13-19-24-27(23,25-21-15-9-6-10-16-21)26-22-17-11-7-12-18-22/h6-7,9-12,15-18,20H,3-5,8,13-14,19H2,1-2H3",RYUJRXVZSJCHDZ-UHFFFAOYSA-N,CC(C)CCCCCCCOP(=O)(Oc1ccccc1)Oc1ccccc1,-5.7165,0.9129292636500002,2,G2,390.46,7.265700000000007,110.23850000000006,27.0,4.0,0.0,5.0,13.0,148.0,2.0,0.0,0.0,2.0,44.760000000000005,163.02816483252278,1.8204571177531328,627.7268373621044
B-2776,"phosphorohydrazidic acid, diphenyl ester","InChI=1S/C12H13N2O3P/c13-14-18(15,16-11-7-3-1-4-8-11)17-12-9-5-2-6-10-12/h1-10H,13H2,(H,14,15)",OTRWTWZSLKFJGX-UHFFFAOYSA-N,NNP(=O)(Oc1ccccc1)Oc1ccccc1,-2.2373,0.0,1,G1,264.221,2.7158000000000007,69.06960000000004,18.0,4.0,2.0,6.0,5.0,94.0,2.0,0.0,0.0,2.0,73.58,105.09462647753638,2.1376638619969057,488.03349097656104
B-2810,phosdiphen,"InChI=1S/C14H11Cl4O4P/c1-2-20-23(19,21-13-5-3-9(15)7-11(13)17)22-14-6-4-10(16)8-12(14)18/h3-8H,2H2,1H3",HEMINMLPKZELPP-UHFFFAOYSA-N,CCOP(=O)(Oc1ccc(Cl)cc1Cl)Oc1ccc(Cl)cc1Cl,-5.774,0.0,1,G1,416.0240000000001,6.902600000000002,93.41250000000002,23.0,4.0,0.0,9.0,6.0,124.0,2.0,0.0,0.0,2.0,44.760000000000005,153.3216928248766,2.2909129330295976,696.0522799954015
C-1040,methyclothiazide,"InChI=1S/C9H11Cl2N3O4S2/c1-14-9(4-10)13-6-2-5(11)7(19(12,15)16)3-8(6)20(14,17)18/h2-3,9,13H,4H2,1H3,(H2,12,15,16)",CESYKOGBSMNBPD-UHFFFAOYSA-N,CN1C(CCl)Nc2cc(Cl)c(S(N)(=O)=O)cc2S1(=O)=O,-3.78,0.0,1,G1,360.24400000000014,0.5982999999999998,75.90470000000002,20.0,5.0,2.0,11.0,2.0,112.0,1.0,0.0,1.0,2.0,109.57,126.29806909857516,2.7513491066043745,763.6424933197933
C-1045,trichlormethiazide with crystal form i,"InChI=1S/C8H8Cl3N3O4S2/c9-3-1-4-6(2-5(3)19(12,15)16)20(17,18)14-8(13-4)7(10)11/h1-2,7-8,13-14H,(H2,12,15,16)",LMJSLTNSBFUCMU-UHFFFAOYSA-N,NS(=O)(=O)c1cc2c(cc1Cl)NC(C(Cl)Cl)NS2(=O)=O,-3.18,0.3499259477216413,3,G5,380.662,0.8210000000000002,76.05140000000002,20.0,5.0,3.0,12.0,2.0,112.0,1.0,0.0,1.0,2.0,118.36,130.02642172446494,2.674326651539072,763.4169308306105
G-731,hydrochlorothiazide,"InChI=1S/C7H8ClN3O4S2/c8-4-1-5-7(2-6(4)16(9,12)13)17(14,15)11-3-10-5/h1-2,10-11H,3H2,(H2,9,12,13)",JZUFKLXOESDKRF-UHFFFAOYSA-N,NS(=O)(=O)c1cc2c(cc1Cl)NCNS2(=O)=O,-2.63,0.0231136804127387,3,G5,297.745,-0.3512999999999994,61.63640000000001,17.0,5.0,3.0,10.0,1.0,94.0,1.0,0.0,1.0,2.0,118.36,103.054947156305,2.790493724042408,683.3155123780438
I-45,hydroflumethiazide,"InChI=1S/C8H8F3N3O4S2/c9-8(10,11)4-1-5-7(2-6(4)19(12,15)16)20(17,18)14-3-13-5/h1-2,13-14H,3H2,(H2,12,15,16)",DMDGGSIALPNSEE-UHFFFAOYSA-N,NS(=O)(=O)c1cc2c(cc1C(F)(F)F)NCNS2(=O)=O,-2.97,0.0365499999999998,2,G3,331.29699999999997,0.0141000000000001,61.6284,20.0,5.0,3.0,12.0,1.0,112.0,1.0,0.0,1.0,2.0,118.36,111.6132292525986,2.86773879182791,770.8922156146342
B-1509,"benzoic acid, 2-benzoylhydrazide","InChI=1S/C14H12N2O2/c17-13(11-7-3-1-4-8-11)15-16-14(18)12-9-5-2-6-10-12/h1-10H,(H,15,17)(H,16,18)",GRRIYLZJLGTQJX-UHFFFAOYSA-N,O=C(NNC(=O)c1ccccc1)c1ccccc1,-1.5883,0.0,1,G1,240.26200000000003,1.7614,67.81640000000003,18.0,2.0,2.0,4.0,2.0,90.0,2.0,0.0,0.0,2.0,58.2,104.61128614189282,1.929663043511077,486.7351541205121
B-3432,halofenozide,"InChI=1S/C18H19ClN2O2/c1-18(2,3)21(17(23)14-7-5-4-6-8-14)20-16(22)13-9-11-15(19)12-10-13/h4-12H,1-3H3,(H,20,22)",CNKHSLKYRMDDNQ-UHFFFAOYSA-N,CC(C)(C)N(NC(=O)c1ccc(Cl)cc1)C(=O)c1ccccc1,-4.4404,0.0,1,G1,330.81500000000005,3.925700000000002,91.28270000000003,23.0,2.0,1.0,5.0,2.0,120.0,2.0,0.0,0.0,2.0,49.41,140.58429231295622,2.244270660640442,691.2115667431057
B-3433,tebufenozide,"InChI=1S/C22H28N2O2/c1-7-17-8-10-18(11-9-17)20(25)23-24(22(4,5)6)21(26)19-13-15(2)12-16(3)14-19/h8-14H,7H2,1-6H3,(H,23,25)",QYPNKSZPJQQLRK-UHFFFAOYSA-N,CCc1ccc(C(=O)NN(C(=O)c2cc(C)cc(C)c2)C(C)(C)C)cc1,-5.6281,0.0,1,G1,352.4780000000001,4.451540000000004,105.12470000000005,26.0,2.0,1.0,4.0,3.0,138.0,2.0,0.0,0.0,2.0,49.41,155.740794543661,2.290346313235774,781.6322273628833
B-3545,Methoxyfenozide,"InChI=1S/C22H28N2O3/c1-14-11-15(2)13-17(12-14)21(26)24(22(4,5)6)23-20(25)18-9-8-10-19(27-7)16(18)3/h8-13H,1-7H3,(H,23,25)",QCAWEPFNJXQPAN-UHFFFAOYSA-N,COc1cccc(C(=O)NN(C(=O)c2cc(C)cc(C)c2)C(C)(C)C)c1C,-5.5664,0.0,1,G1,368.47700000000015,4.206160000000003,107.03570000000003,27.0,3.0,1.0,5.0,3.0,144.0,2.0,0.0,0.0,2.0,58.64,160.85433977316794,2.3785529423187843,846.0969911888999
A-2806,(4-fluorophenyl)(piperidin-4-yl)methanone hydrochloride,"InChI=1S/C12H14FNO.ClH/c13-11-3-1-9(2-4-11)12(15)10-5-7-14-8-6-10;/h1-4,10,14H,5-8H2;1H",GPKDBZQZPNOBGM-UHFFFAOYSA-N,O=C(c1ccc(F)cc1)C1CCNCC1.[Cl-].[H+],0.5890195686999999,0.0,1,G1,243.70899999999995,-0.8754999999999997,57.43620000000003,16.0,2.0,1.0,4.0,2.0,88.0,1.0,1.0,1.0,2.0,29.1,102.13003596097036,1.2799997289000598e-06,352.028190721836
A-5444,(2-{[(2E)-2-cyano-2-{[4-(diethylamino)phenyl]methylidene}acetyl]oxy}ethyl)(3-{[(2E)-2-cyano-2-{[4-(diethylamino)phenyl]methylidene}acetyl]oxy}propyl)dimethylazanium chloride,"InChI=1S/C35H46N5O4.ClH/c1-7-38(8-2)32-16-12-28(13-17-32)24-30(26-36)34(41)43-22-11-20-40(5,6)21-23-44-35(42)31(27-37)25-29-14-18-33(19-15-29)39(9-3)10-4;/h12-19,24-25H,7-11,20-23H2,1-6H3;1H/q+1;/p-1/b30-24+,31-25+;",DLNMMVNCTSAPOW-LMKNCCGPSA-M,CCN(CC)c1ccc(/C=C(\C#N)C(=O)OCCC[N+](C)(C)CCOC(=O)/C(C#N)=C/c2ccc(N(CC)CC)cc2)cc1.[Cl-],-0.8036189217,0.0,1,G1,636.2370000000001,2.4500600000000032,175.56339999999943,45.0,8.0,0.0,10.0,17.0,242.0,2.0,0.0,0.0,2.0,106.66,274.480819664108,1.012496116515365e-05,1364.7325860659332
A-3259,"tetrasodium 3-[(E)-2-(4-{[4-({4-[(E)-2-(4,8-disulfonatonaphthalen-2-yl)diazen-1-yl]-3-methylphenyl}amino)-6-[(2-hydroxyethyl)amino]-1,3,5-triazin-2-yl]amino}-2-methylphenyl)diazen-1-yl]naphthalene-1,5-disulfonate","InChI=1S/C39H34N10O13S4.4Na/c1-21-15-23(9-11-31(21)48-46-25-17-29-27(35(19-25)65(57,58)59)5-3-7-33(29)63(51,52)53)41-38-43-37(40-13-14-50)44-39(45-38)42-24-10-12-32(22(2)16-24)49-47-26-18-30-28(36(20-26)66(60,61)62)6-4-8-34(30)64(54,55)56;;;;/h3-12,15-20,50H,13-14H2,1-2H3,(H,51,52,53)(H,54,55,56)(H,57,58,59)(H,60,61,62)(H3,40,41,42,43,44,45);;;;/q;4*+1/p-4",YYRIJHSNZXZKJD-UHFFFAOYSA-J,Cc1cc(Nc2nc(NCCO)nc(Nc3ccc(N=Nc4cc(S(=O)(=O)[O-])c5cccc(S(=O)(=O)[O-])c5c4)c(C)c3)n2)ccc1N=Nc1cc(S(=O)(=O)[O-])c2cccc(S(=O)(=O)[O-])c2c1.[Na+].[Na+].[Na+].[Na+],-1.1748734719,0.0,1,G1,1066.954,-5.850560000000014,232.4266999999997,70.0,23.0,4.0,31.0,15.0,342.0,7.0,0.0,0.0,7.0,373.23,488.64733993065767,3.23999519243234e-06,3423.681422187892
F-719,di(phenyl)-piperidin-4-ylmethanol,"InChI=1S/C18H21NO/c20-18(15-7-3-1-4-8-15,16-9-5-2-6-10-16)17-11-13-19-14-12-17/h1-10,17,19-20H,11-14H2",ZMISODWVFHHWNR-UHFFFAOYSA-N,OC(c1ccccc1)(c1ccccc1)C1CCNCC1,-1.39,0.0,1,G1,267.372,2.9221000000000013,81.47650000000004,20.0,2.0,2.0,2.0,3.0,104.0,2.0,1.0,1.0,3.0,32.26,120.01641479421548,2.069930143588577,492.35938487514255
B-3348,thenylchlor,"InChI=1S/C16H18ClNO2S/c1-11-5-4-6-12(2)16(11)18(15(19)9-17)10-14-13(20-3)7-8-21-14/h4-8H,9-10H2,1-3H3",KDWQYMVPYJGPHS-UHFFFAOYSA-N,COc1ccsc1CN(C(=O)CCl)c1c(C)cccc1C,-4.4689,0.0,1,G1,323.845,4.145540000000003,88.69700000000003,21.0,3.0,0.0,5.0,5.0,112.0,2.0,0.0,0.0,2.0,29.54,133.65668050898782,2.4230733659323462,618.7072558836003
B-3220,oxabetrinil,"InChI=1S/C12H12N2O3/c13-8-11(10-4-2-1-3-5-10)14-17-9-12-15-6-7-16-12/h1-5,12H,6-7,9H2/b14-11+",WFVUIONFJOAYPK-SDNWHVSQSA-N,N#C/C(=N\OCC1OCCO1)c1ccccc1,-4.0649,0.0,1,G1,232.239,1.3037800000000002,60.23600000000003,17.0,5.0,0.0,5.0,4.0,88.0,1.0,1.0,1.0,2.0,63.84,99.19780100767488,1.9190709671103665,419.1269235594376
B-3307,fluxofenim,"InChI=1S/C12H11ClF3NO3/c13-9-3-1-8(2-4-9)11(12(14,15)16)17-20-7-10-18-5-6-19-10/h1-4,10H,5-7H2/b17-11+",UKSLKNUCVPZQCQ-GZTJUZNOSA-N,FC(F)(F)/C(=N/OCC1OCCO1)c1ccc(Cl)cc1,-4.0138,0.0,1,G1,309.671,2.9959000000000016,65.68800000000003,20.0,4.0,0.0,8.0,4.0,110.0,1.0,1.0,1.0,2.0,40.05,117.6050937618665,2.0822485465412894,469.83104579516976
A-242,"5-nitro-1,3-dihydro-2H-benzimidazol-2-one","InChI=1S/C7H5N3O3/c11-7-8-5-2-1-4(10(12)13)3-6(5)9-7/h1-3H,(H2,8,9,11)",DLJZIPVEVJOKHB-UHFFFAOYSA-N,O=c1[nH]c2ccc([N+](=O)[O-])cc2[nH]1,-3.2740875474,0.0,1,G1,179.135,0.7643999999999997,45.5738,13.0,3.0,2.0,6.0,1.0,66.0,2.0,0.0,0.0,2.0,91.79,71.35637387573655,2.7435199944853146,525.0074434240122
A-618,1H-benzimidazol-2-ol,"InChI=1S/C7H6N2O/c10-7-8-5-3-1-2-4-6(5)9-7/h1-4H,(H2,8,9,10)",SILNNFMWIMZVEQ-UHFFFAOYSA-N,O=c1[nH]c2ccccc2[nH]1,-2.3927519971,0.0,1,G1,134.13799999999998,0.8561999999999999,38.91940000000001,10.0,1.0,2.0,3.0,0.0,50.0,2.0,0.0,0.0,2.0,48.65,56.70339815323675,3.007619546803024,362.8983534112405
A-1383,"1-(3-chloropropyl)-2,3-dihydro-1H-1,3-benzodiazol-2-one","InChI=1S/C10H11ClN2O/c11-6-3-7-13-9-5-2-1-4-8(9)12-10(13)14/h1-2,4-5H,3,6-7H2,(H,12,14)",GUMPYDGUYXOYML-UHFFFAOYSA-N,O=c1[nH]c2ccccc2n1CCCCl,-3.0203942687,0.0,1,G1,210.664,1.9585,57.89570000000002,14.0,2.0,1.0,4.0,3.0,74.0,2.0,0.0,0.0,2.0,37.79,86.31146220990358,2.510480458264342,486.0728097407958
A-1570,"5-amino-6-methyl-2,3-dihydro-1H-1,3-benzodiazol-2-one","InChI=1S/C8H9N3O/c1-4-2-6-7(3-5(4)9)11-8(12)10-6/h2-3H,9H2,1H3,(H2,10,11,12)",ZCXIPVIGYBHUTQ-UHFFFAOYSA-N,Cc1cc2[nH]c(=O)[nH]c2cc1N,-1.9771384819,0.12791662345,2,G3,163.18,0.74682,48.0688,12.0,2.0,3.0,4.0,0.0,62.0,2.0,0.0,0.0,2.0,74.67,68.40823096464607,2.915474885978318,438.4988967851898
A-4744,"3-oxo-N-(2-oxo-2,3-dihydro-1H-1,3-benzodiazol-5-yl)butanamide","InChI=1S/C11H11N3O3/c1-6(15)4-10(16)12-7-2-3-8-9(5-7)14-11(17)13-8/h2-3,5H,4H2,1H3,(H,12,16)(H2,13,14,17)",VEMDQCGHZNXORX-UHFFFAOYSA-N,CC(=O)CC(=O)Nc1ccc2[nH]c(=O)[nH]c2c1,-2.522680786,0.0,1,G1,233.227,0.7738,62.847100000000005,17.0,3.0,3.0,6.0,3.0,88.0,2.0,0.0,0.0,2.0,94.82,96.03607299451876,2.2141923217394335,638.6942289303169
A-4746,"5-amino-2,3-dihydro-1H-1,3-benzodiazol-2-one","InChI=1S/C7H7N3O/c8-4-1-2-5-6(3-4)10-7(11)9-5/h1-3H,8H2,(H2,9,10,11)",BCXSVFBDMPSKPT-UHFFFAOYSA-N,Nc1ccc2[nH]c(=O)[nH]c2c1,-2.3347829022999997,0.0,1,G1,149.15300000000002,0.4384,43.331799999999994,11.0,2.0,3.0,4.0,0.0,56.0,2.0,0.0,0.0,2.0,74.67,62.04328885024946,2.920939354744553,440.1275665764416
C-1342,3-benzoyl-5-fluorouracil,"InChI=1S/C11H7FN2O3/c12-8-6-13-11(17)14(10(8)16)9(15)7-4-2-1-3-5-7/h1-6H,(H,13,17)",OAPBZIITNDJWQW-UHFFFAOYSA-N,O=C(c1ccccc1)n1c(=O)[nH]cc(F)c1=O,-2.26,0.0,1,G1,234.186,0.3642,57.45120000000001,17.0,4.0,1.0,6.0,1.0,86.0,2.0,0.0,0.0,2.0,71.93,94.15280859150349,2.641959822611319,673.106165896976
C-2305,1-acetoxymethyl-3-benzoyl-5-fluorouracil,"InChI=1S/C14H11FN2O5/c1-9(18)22-8-16-7-11(15)13(20)17(14(16)21)12(19)10-5-3-2-4-6-10/h2-7H,8H2,1H3",PUXWCWJFSQGEGX-UHFFFAOYSA-N,CC(=O)OCn1cc(F)c(=O)n(C(=O)c2ccccc2)c1=O,-3.34,0.0,1,G1,306.24899999999997,0.3581999999999993,72.85650000000001,22.0,7.0,0.0,8.0,3.0,114.0,2.0,0.0,0.0,2.0,87.37,122.73267375083933,2.5566229085741443,838.5470810765916
C-2355,3-benzoyl-1-butanoyloxymethyl-5-fluorouracil,"InChI=1S/C16H15FN2O5/c1-2-6-13(20)24-10-18-9-12(17)15(22)19(16(18)23)14(21)11-7-4-3-5-8-11/h3-5,7-9H,2,6,10H2,1H3",WJZCANSESVPVMM-UHFFFAOYSA-N,CCCC(=O)OCn1cc(F)c(=O)n(C(=O)c2ccccc2)c1=O,-3.73,0.0,1,G1,334.303,1.1383999999999996,82.09050000000002,24.0,7.0,0.0,8.0,5.0,126.0,2.0,0.0,0.0,2.0,87.37,135.46255797963252,2.4188685443329283,870.2718879243212
A-1455,"1,3,3-trimethyl-2-oxabicyclo[2.2.2]octane; 1,7,7-trimethylbicyclo[2.2.1]heptan-2-one; 2,2-dimethyl-3-methylidenebicyclo[2.2.1]heptane; 2,6,6-trimethylbicyclo[3.1.1]hept-2-ene","InChI=1S/C10H18O.C10H16O.2C10H16/c1-9(2)8-4-6-10(3,11-9)7-5-8;1-9(2)7-4-5-10(9,3)8(11)6-7;1-7-8-4-5-9(6-8)10(7,2)3;1-7-4-5-8-6-9(7)10(8,2)3/h8H,4-7H2,1-3H3;7H,4-6H2,1-3H3;8-9H,1,4-6H2,2-3H3;4,8-9H,5-6H2,1-3H3",SMPQTZLALIOWBF-UHFFFAOYSA-N,C=C1C2CCC(C2)C1(C)C.CC12CCC(CC1)C(C)(C)O2.CC12CCC(CC1=O)C2(C)C.CC1=CCC2CC1C2(C)C,-5.4383706051,0.0149081145499998,2,G3,578.9660000000003,11.14319999999999,177.2669999999995,42.0,2.0,0.0,2.0,0.0,238.0,0.0,7.0,8.0,8.0,26.3,259.83869898683326,1.1206317135347558e-07,1089.917488736728
C-2493,indapamide;  1-(3-aminosulfonyl-4-chloro)benzoylamino-2-methylindoline,"InChI=1S/C16H16ClN3O3S/c1-10-8-11-4-2-3-5-14(11)20(10)19-16(21)12-6-7-13(17)15(9-12)24(18,22)23/h2-7,9-10H,8H2,1H3,(H,19,21)(H2,18,22,23)",NDDAHWYSQHTHNT-UHFFFAOYSA-N,CC1Cc2ccccc2N1NC(=O)c1ccc(Cl)c(S(N)(=O)=O)c1,-3.79,0.1019999999999998,2,G3,365.842,2.0833999999999997,92.37840000000004,24.0,4.0,2.0,8.0,3.0,126.0,2.0,0.0,1.0,3.0,92.5,144.78772142001787,1.8885490887958856,914.5336968480626
A-6091,"3-{2-[(3Z)-5-cyano-1,4-dimethyl-2,6-dioxo-1,2,3,6-tetrahydropyridin-3-ylidene]hydrazin-1-yl}phenyl benzenesulfonate","InChI=1S/C20H16N4O5S/c1-13-17(12-21)19(25)24(2)20(26)18(13)23-22-14-7-6-8-15(11-14)29-30(27,28)16-9-4-3-5-10-16/h3-11,22H,1-2H3/b23-18-",DGUZPEZCWQVQGW-NKFKGCMQSA-N,CC1=C(C#N)C(=O)N(C)C(=O)/C1=N\Nc1cccc(OS(=O)(=O)c2ccccc2)c1,-8.782716219400001,0.0,1,G1,424.43800000000016,2.06088,107.84550000000004,30.0,8.0,1.0,10.0,5.0,152.0,2.0,0.0,1.0,3.0,128.92999999999998,172.55132578383464,1.85590489101779,1227.3431828742407
C-2345,"1,3-dipropyl-8-(3-noradamantyl)xanthine","InChI=1S/C20H28N4O2/c1-3-5-23-16-15(17(25)24(6-4-2)19(23)26)21-18(22-16)20-10-12-7-13(11-20)9-14(20)8-12/h12-14H,3-11H2,1-2H3,(H,21,22)",PJBFVWGQFLYWCB-UHFFFAOYSA-N,CCCn1c(=O)c2[nH]c(C34CC5CC(CC3C5)C4)nc2n(CCC)c1=O,-5.85,0.0,1,G1,356.4700000000002,2.7840000000000007,100.42870000000006,26.0,5.0,1.0,6.0,5.0,140.0,2.0,4.0,4.0,6.0,72.68,152.18079744372565,1.7275121994407774,968.083237770863
C-1800,"purine-6,8-dione","InChI=1S/C5H4N4O2/c10-4-2-3(6-1-7-4)9-5(11)8-2/h1H,(H3,6,7,8,9,10,11)",BYUOBSUZYQAFJM-UHFFFAOYSA-N,O=c1[nH]c2nc[nH]c(=O)c2[nH]1,-2.96,0.0,1,G1,152.113,-1.0605000000000004,37.33509999999999,11.0,3.0,3.0,6.0,0.0,56.0,2.0,0.0,0.0,2.0,94.4,59.30421621517354,3.13630869906562,490.64199370972545