ID,Name,InChI,InChIKey,SMILES,Solubility,SD,Occurrences,Group,MolWt,MolLogP,MolMR,HeavyAtomCount,NumHAcceptors,NumHDonors,NumHeteroatoms,NumRotatableBonds,NumValenceElectrons,NumAromaticRings,NumSaturatedRings,NumAliphaticRings,RingCount,TPSA,LabuteASA,BalabanJ,BertzCT
B-4526,5-fluoro-2-nitrophenol,"InChI=1S/C6H4FNO3/c7-4-1-2-5(8(10)11)6(9)3-4/h1-3,9H",QQURWFRNETXFTN-UHFFFAOYSA-N,O=[N+]([O-])c1ccc(F)cc1O,-2.05,0.0,1,G1,157.1,1.4395,34.71920000000001,11.0,3.0,1.0,5.0,1.0,58.0,1.0,0.0,0.0,1.0,63.37,61.04414799711901,3.1960696621259204,299.8789117242989
B-4527,"4,6-dinitro-o-cresol","InChI=1S/C7H6N2O5/c1-4-2-5(8(11)12)3-6(7(4)10)9(13)14/h2-3,10H,1H3",ZXVONLUNISGICL-UHFFFAOYSA-N,Cc1cc([N+](=O)[O-])cc([N+](=O)[O-])c1O,-3.0003,0.7793357983992952,3,G4,198.134,1.5170200000000005,46.15260000000001,14.0,5.0,1.0,7.0,2.0,74.0,1.0,0.0,0.0,1.0,106.51,77.89653043108919,3.427504477934317,414.78633577032497
B-4528,"2,6-dinitrophenol","InChI=1S/C6H4N2O5/c9-6-4(7(10)11)2-1-3-5(6)8(12)13/h1-3,9H",JCRIDWXIBSEOEG-UHFFFAOYSA-N,O=[N+]([O-])c1cccc([N+](=O)[O-])c1O,-2.7668,0.6083999999999999,2,G2,184.10699999999997,1.2086000000000003,41.41560000000001,13.0,5.0,1.0,7.0,2.0,68.0,1.0,0.0,0.0,1.0,106.51,71.53158831669259,3.3454419708109935,343.037402549959
B-4529,2-nitroresorcinol,"InChI=1S/C6H5NO4/c8-4-2-1-3-5(9)6(4)7(10)11/h1-3,8-9H",ZLCPKMIJYMHZMJ-UHFFFAOYSA-N,O=[N+]([O-])c1c(O)cccc1O,-2.0734,0.0,1,G1,155.10899999999998,1.006,36.42600000000001,11.0,4.0,2.0,5.0,1.0,58.0,1.0,0.0,0.0,1.0,83.6,61.67284634638879,3.318913173486668,276.3837992264624
B-4531,4-(sec-butyl)-2-nitrophenol,"InChI=1S/C10H13NO3/c1-3-7(2)8-4-5-10(12)9(6-8)11(13)14/h4-7,12H,3H2,1-2H3",GCDCKEORRIGZKI-UHFFFAOYSA-N,CCC(C)c1ccc(O)c([N+](=O)[O-])c1,-3.8403,0.0,1,G1,195.21799999999996,2.813900000000001,53.46720000000003,14.0,3.0,1.0,4.0,3.0,76.0,1.0,0.0,0.0,1.0,63.37,82.33838105177921,3.123580798288176,349.2203893594689
B-4532,p-aminosalicylic acid,"InChI=1S/C7H7NO3/c8-4-1-2-5(7(10)11)6(9)3-4/h1-3,9H,8H2,(H,10,11)",WUBBRNOQWQTFEX-UHFFFAOYSA-N,Nc1ccc(C(=O)O)c(O)c1,-1.9572,0.0,1,G1,153.137,0.6726000000000001,39.4785,11.0,3.0,3.0,4.0,1.0,58.0,1.0,0.0,0.0,1.0,83.55,62.88622553534207,3.1960696621259195,295.7372022742226
B-4534,3-aminobenzoic acid,"InChI=1S/C7H7NO2/c8-6-3-1-2-5(4-6)7(9)10/h1-4H,8H2,(H,9,10)",XFDUHJPVQKIXHO-UHFFFAOYSA-N,Nc1cccc(C(=O)O)c1,-1.3663,0.0418499999999999,2,G3,137.13799999999998,0.967,37.81370000000001,10.0,2.0,2.0,3.0,1.0,52.0,1.0,0.0,0.0,1.0,63.32,58.09199178314606,3.069899265759275,257.53794892648057
B-4536,"3,4-dihydroxybenzoic acid","InChI=1S/C7H6O4/c8-5-2-1-4(7(10)11)3-6(5)9/h1-3,8-9H,(H,10,11)",YQUVCSBJEUQKSH-UHFFFAOYSA-N,O=C(O)c1ccc(O)c(O)c1,-0.9278,0.0,1,G1,154.12099999999998,0.7959999999999998,36.730900000000005,11.0,3.0,3.0,4.0,1.0,58.0,1.0,0.0,0.0,1.0,77.76,62.34056859052537,3.1515496683060507,292.492089776386
B-4539,4-hydroxy-3-methoxybenzoic acid,"InChI=1S/C8H8O4/c1-12-7-4-5(8(10)11)2-3-6(7)9/h2-4,9H,1H3,(H,10,11)",WKOLLVMJNQIZCI-UHFFFAOYSA-N,COc1cc(C(=O)O)ccc1O,-2.0496,0.0,1,G1,168.14799999999997,1.099,41.61810000000001,12.0,3.0,2.0,4.0,2.0,64.0,1.0,0.0,0.0,1.0,66.75999999999999,69.02482218223285,3.1343002499495434,305.92621196610224
B-4540,"3-amino-2,5-dichlorobenzoic acid","InChI=1S/C7H5Cl2NO2/c8-3-1-4(7(11)12)6(9)5(10)2-3/h1-2H,10H2,(H,11,12)",HSSBORCLYSCBJR-UHFFFAOYSA-N,Nc1cc(Cl)cc(C(=O)O)c1Cl,-2.4688,0.3856000000000001,2,G3,206.028,2.2738,47.8337,12.0,2.0,2.0,5.0,1.0,64.0,1.0,0.0,0.0,1.0,63.32,78.69852423690939,3.3738590108748694,338.423415200434
B-4541,4-aminobenzoic acid,"InChI=1S/C7H7NO2/c8-6-3-1-5(2-4-6)7(9)10/h1-4H,8H2,(H,9,10)",ALYNCZNDIQEVRV-UHFFFAOYSA-N,Nc1ccc(C(=O)O)cc1,-1.3511,0.4528733475143894,3,G5,137.13799999999998,0.967,37.81370000000001,10.0,2.0,2.0,3.0,1.0,52.0,1.0,0.0,0.0,1.0,63.32,58.09199178314606,3.003400684579818,240.2879489264805
B-4542,"2,6-dihydroxybenzoic acid","InChI=1S/C7H6O4/c8-4-2-1-3-5(9)6(4)7(10)11/h1-3,8-9H,(H,10,11)",AKEUNCKRJATALU-UHFFFAOYSA-N,O=C(O)c1c(O)cccc1O,-1.2074,0.0,1,G1,154.12099999999998,0.7959999999999998,36.73090000000001,11.0,3.0,3.0,4.0,1.0,58.0,1.0,0.0,0.0,1.0,77.76,62.34056859052537,3.318913173486669,272.2420897763861
B-4548,p-hydroxy butyl benzoate,"InChI=1S/C11H14O3/c1-2-3-8-14-11(13)9-4-6-10(12)7-5-9/h4-7,12H,2-3,8H2,1H3",QFOHBWFCKVYLES-UHFFFAOYSA-N,CCCCOC(=O)c1ccc(O)cc1,-2.9723,0.1477831752094939,4,G5,194.23,2.349100000000001,53.297300000000035,14.0,3.0,1.0,3.0,4.0,76.0,1.0,0.0,0.0,1.0,46.53,83.32541477322667,2.4810725342253392,289.90588306124454
B-4550,methyl salicylate,"InChI=1S/C8H8O3/c1-11-8(10)6-4-2-3-5-7(6)9/h2-5,9H,1H3",OSWPMRLSEDHDFF-UHFFFAOYSA-N,COC(=O)c1ccccc1O,-1.3130000000000002,0.5134999999999998,2,G2,152.14899999999997,1.1787999999999998,39.446300000000015,11.0,3.0,1.0,3.0,1.0,58.0,1.0,0.0,0.0,1.0,46.53,64.23058843003683,3.032662155800657,267.7946100817276
B-4553,methyl p-aminobenzoate,"InChI=1S/C8H9NO2/c1-11-8(10)6-2-4-7(9)5-3-6/h2-5H,9H2,1H3",LZXXNPOYQCLXRS-UHFFFAOYSA-N,COC(=O)c1ccc(N)cc1,-1.5974,0.2113,2,G3,151.16500000000002,1.0554,42.19390000000001,11.0,3.0,1.0,3.0,1.0,58.0,1.0,0.0,0.0,1.0,52.32,64.77624537485353,2.8953480359887567,253.29949758389105
B-4554,"benzoic acid, 4-amino-,pentyl ester","InChI=1S/C12H17NO2/c1-2-3-4-9-15-12(14)10-5-7-11(13)8-6-10/h5-8H,2-4,9,13H2,1H3",VKYWCHMXHQTCJQ-UHFFFAOYSA-N,CCCCCOC(=O)c1ccc(N)cc1,-3.3499,0.2129846160328644,3,G5,207.273,2.6158,60.66190000000003,15.0,3.0,1.0,3.0,5.0,82.0,1.0,0.0,0.0,1.0,52.32,90.23601383243998,2.3674874478117127,305.90308737575606
B-4555,"benzoic acid,4-amino-,heptyl ester","InChI=1S/C14H21NO2/c1-2-3-4-5-6-11-17-14(16)12-7-9-13(15)10-8-12/h7-10H,2-6,11,15H2,1H3",IAHJVNSZPMIREM-UHFFFAOYSA-N,CCCCCCCOC(=O)c1ccc(N)cc1,-4.6001,0.2699499999999997,2,G3,235.327,3.3960000000000017,69.89590000000004,17.0,3.0,1.0,3.0,7.0,94.0,1.0,0.0,0.0,1.0,52.32,102.9658980612332,2.187783398833526,332.5803757963123
B-4556,"benzoic acid,4-amino,octyl ester","InChI=1S/C15H23NO2/c1-2-3-4-5-6-7-12-18-15(17)13-8-10-14(16)11-9-13/h8-11H,2-7,12,16H2,1H3",XOEUGELJHSUYGP-UHFFFAOYSA-N,CCCCCCCCOC(=O)c1ccc(N)cc1,-5.3999,0.0,1,G1,249.354,3.786100000000002,74.51290000000004,18.0,3.0,1.0,3.0,8.0,100.0,1.0,0.0,0.0,1.0,52.32,109.33084017562982,2.117836776279736,346.0161635210679
B-4622,dl-phenylalanine,"InChI=1S/C9H11NO2/c10-8(9(11)12)6-7-4-2-1-3-5-7/h1-5,8H,6,10H2,(H,11,12)",COLNVLDHVKWLRT-UHFFFAOYSA-N,NC(Cc1ccccc1)C(=O)O,-1.0657,0.1824534799064458,4,G5,165.19199999999995,0.641,45.75720000000002,12.0,2.0,2.0,3.0,3.0,64.0,1.0,0.0,0.0,1.0,63.32,70.82187601193928,2.58460408239752,258.4908622767174
B-4631,isophthalic acid,"InChI=1S/C8H6O4/c9-7(10)5-2-1-3-6(4-5)8(11)12/h1-4H,(H,9,10)(H,11,12)",QQVIHTHCMHWDBS-UHFFFAOYSA-N,O=C(O)c1cccc(C(=O)O)c1,-3.2204,0.0,1,G1,166.13199999999998,1.083,40.360600000000005,12.0,2.0,2.0,4.0,2.0,62.0,1.0,0.0,0.0,1.0,74.6,68.07279905276974,3.121805775248301,300.33467465916425
B-4646,n-methylacetanilide,"InChI=1S/C9H11NO/c1-8(11)10(2)9-6-4-3-5-7-9/h3-7H,1-2H3",LMTGCJANOQOGPI-UHFFFAOYSA-N,CC(=O)N(C)c1ccccc1,-0.951,0.1004999999999999,2,G3,149.19299999999998,1.6693,45.52600000000003,11.0,1.0,0.0,2.0,1.0,58.0,1.0,0.0,0.0,1.0,20.31,66.44758523293392,2.851177890164404,242.9994627262031
B-4647,propachlor,"InChI=1S/C11H14ClNO/c1-9(2)13(11(14)8-12)10-6-4-3-5-7-10/h3-7,9H,8H2,1-2H3",MFOUDYKPLGXPGO-UHFFFAOYSA-N,CC(C)N(C(=O)CCl)c1ccccc1,-2.4806,0.2603,2,G3,211.69200000000004,2.666800000000001,59.78400000000004,14.0,1.0,0.0,3.0,3.0,76.0,1.0,0.0,0.0,1.0,20.31,89.48073568860885,2.949060352521371,297.41565806557145
B-4650,acetochlor,"InChI=1S/C14H20ClNO2/c1-4-12-8-6-7-11(3)14(12)16(10-18-5-2)13(17)9-15/h6-8H,4-5,9-10H2,1-3H3",VTNQPKFIQCLBDU-UHFFFAOYSA-N,CCOCN(C(=O)CCl)c1c(C)cccc1CC,-3.0827,0.0,1,G1,269.772,3.1232200000000017,75.25600000000004,18.0,2.0,0.0,4.0,6.0,100.0,1.0,0.0,0.0,1.0,29.54,113.68910726130554,3.1439293404994153,406.7805068733245
C-63,phenol,"InChI=1S/C6H6O/c7-6-4-2-1-3-5-6/h1-5,7H",ISWSIDIOOBJBQZ-UHFFFAOYSA-N,Oc1ccccc1,-0.04,0.0234158540784277,3,G5,94.113,1.3922,28.106799999999993,7.0,1.0,1.0,1.0,0.0,36.0,1.0,0.0,0.0,1.0,20.23,42.22563687169298,3.0214653097240864,134.10736969541455
C-81,"1,3-phenylenediamine;  1,3-diaminobenzene","InChI=1S/C6H8N2/c7-5-2-1-3-6(8)4-5/h1-4H,7-8H2",WZCQRUWWHSTZEM-UHFFFAOYSA-N,Nc1cccc(N)c1,0.51,0.106096776460592,3,G5,108.144,0.851,35.2668,8.0,2.0,2.0,2.0,0.0,42.0,1.0,0.0,0.0,1.0,52.04,48.11118451352239,3.077660437970554,166.38833891467198
C-91,4-ethylphenol,"InChI=1S/C8H10O/c1-2-7-3-5-8(9)6-4-7/h3-6,9H,2H2,1H3",HXDOZKJGKXYMEW-UHFFFAOYSA-N,CCc1ccc(O)cc1,-1.4,0.1081023502162792,3,G5,122.16699999999996,1.9546,37.48480000000001,9.0,1.0,1.0,1.0,1.0,48.0,1.0,0.0,0.0,1.0,20.23,54.95552110048619,2.881555877646136,176.26405299160075
C-105,"1,2,4,5-tetramethylbenzene;  durene","InChI=1S/C10H14/c1-7-5-9(3)10(4)6-8(7)2/h5-6H,1-4H3",SQNZJJAZBFDUTD-UHFFFAOYSA-N,Cc1cc(C)c(C)cc1C,-3.84,0.3731,2,G3,134.22199999999998,2.9202800000000018,45.39000000000002,10.0,0.0,0.0,0.0,0.0,54.0,1.0,0.0,0.0,1.0,0.0,62.89117157708339,3.2824629074535228,196.2103774276832
C-107,"1,4-dichlorobenzene",InChI=1S/C6H4Cl2/c7-5-1-2-6(8)4-3-5/h1-4H,OCJBOOLMMGQPQU-UHFFFAOYSA-N,Clc1ccc(Cl)cc1,-3.35,0.1518478482041936,6,G5,147.00400000000002,2.993400000000001,36.46200000000001,8.0,0.0,0.0,2.0,0.0,42.0,1.0,0.0,0.0,1.0,0.0,58.037935573260306,3.0324555320336755,145.38833891467198
C-112,3-hydroxybenzaldehyde,"InChI=1S/C7H6O2/c8-5-6-2-1-3-7(9)4-6/h1-5,9H",IAVREABSGIHHMO-UHFFFAOYSA-N,O=Cc1cccc(O)c1,-1.23,0.29125,2,G3,122.12299999999998,1.2047,33.494299999999996,9.0,2.0,1.0,2.0,1.0,46.0,1.0,0.0,0.0,1.0,37.3,52.75210108613335,3.070760681783566,217.91106510209752
C-122,"phloroglucinol;  1,3,5-benzenetriol;  1,3,5-trihydroxybenzene","InChI=1S/C6H6O3/c7-4-1-5(8)3-6(9)2-4/h1-3,7-9H",QCDYQQDYXPDABM-UHFFFAOYSA-N,Oc1cc(O)cc(O)c1,-1.05,0.0126999999999999,2,G3,126.11099999999996,0.8033999999999997,31.436399999999992,9.0,3.0,3.0,3.0,0.0,48.0,1.0,0.0,0.0,1.0,60.69,51.814104376085,3.165670309917317,169.06517765499825
C-137,4-methylbenzoic acid,"InChI=1S/C8H8O2/c1-6-2-4-7(5-3-6)8(9)10/h2-5H,1H3,(H,9,10)",LPNBBFKOUUSUDB-UHFFFAOYSA-N,Cc1ccc(C(=O)O)cc1,-2.53,0.0362500000000001,2,G3,136.14999999999998,1.69322,38.13830000000001,10.0,1.0,1.0,2.0,1.0,52.0,1.0,0.0,0.0,1.0,37.3,59.11704320052995,3.003400684579818,235.93943338088377
C-145,benzyl  carbamate,"InChI=1S/C8H9NO2/c9-8(10)11-6-7-4-2-1-3-5-7/h1-5H,6H2,(H2,9,10)",PUJDIJCNWFYVJX-UHFFFAOYSA-N,NC(=O)OCc1ccccc1,-0.35,0.0,1,G1,151.165,1.2819000000000005,40.81440000000002,11.0,2.0,1.0,3.0,2.0,58.0,1.0,0.0,0.0,1.0,52.32000000000001,64.77624537485353,2.453018743531937,233.1071909292143
C-152,2-fluorobenzoic  acid,"InChI=1S/C7H5FO2/c8-6-4-2-1-3-5(6)7(9)10/h1-4H,(H,9,10)",NSTREUWFTAOOKS-UHFFFAOYSA-N,O=C(O)c1ccccc1F,-1.39,0.0504,2,G3,140.113,1.5239,33.359300000000005,10.0,1.0,1.0,3.0,1.0,52.0,1.0,0.0,0.0,1.0,37.3,56.917636489059575,3.1529414466808685,257.5379489264805
C-158,anthranilic  acid;  2-aminobenzoic  acid,"InChI=1S/C7H7NO2/c8-6-4-2-1-3-5(6)7(9)10/h1-4H,8H2,(H,9,10)",RWZYAGGXGHYGMB-UHFFFAOYSA-N,Nc1ccccc1C(=O)O,-1.52,0.0454050545562219,3,G5,137.13799999999998,0.967,37.81370000000001,10.0,2.0,2.0,3.0,1.0,52.0,1.0,0.0,0.0,1.0,63.32,58.09199178314606,3.1529414466808694,257.5379489264805
C-161,3-hydroxybenzoic acid,"InChI=1S/C7H6O3/c8-6-3-1-2-5(4-6)7(9)10/h1-4,8H,(H,9,10)",IJFXRHURBJZNAO-UHFFFAOYSA-N,O=C(O)c1cccc(O)c1,-1.24,0.01995,2,G3,138.122,1.0904,35.066100000000006,10.0,2.0,2.0,3.0,1.0,52.0,1.0,0.0,0.0,1.0,57.53,57.54633483832936,3.0698992657592745,254.78306142431703
C-170,4-nitrophenol,"InChI=1S/C6H5NO3/c8-6-3-1-5(2-4-6)7(9)10/h1-4,8H",BTJIUGUIPKRLHP-UHFFFAOYSA-N,O=[N+]([O-])c1ccc(O)cc1,-0.94,0.1391028476423909,3,G5,139.11,1.3003999999999998,34.76120000000001,10.0,3.0,1.0,4.0,1.0,52.0,1.0,0.0,0.0,1.0,63.37,56.87861259419278,3.003400684579818,241.67477087439332
C-171,2-nitroaniline,"InChI=1S/C6H6N2O2/c7-5-3-1-2-4-6(5)8(9)10/h1-4H,7H2",DPJCXCZTLWNFOH-UHFFFAOYSA-N,Nc1ccccc1[N+](=O)[O-],-1.96,1.2360319648475886,4,G4,138.12599999999998,1.177,37.508800000000015,10.0,3.0,1.0,4.0,1.0,52.0,1.0,0.0,0.0,1.0,69.16,57.42426953900948,3.1529414466808694,259.6796583765568
C-173,hexamethylbenzene,InChI=1S/C12H18/c1-7-8(2)10(4)12(6)11(5)9(7)3/h1-6H3,YUWFEBAXEOLKSG-UHFFFAOYSA-N,Cc1c(C)c(C)c(C)c(C)c1C,-5.23,0.3045999999999997,2,G3,162.27599999999998,3.5371200000000025,54.86400000000003,12.0,0.0,0.0,0.0,0.0,66.0,1.0,0.0,0.0,1.0,0.0,75.6210558058766,3.603567451474547,214.30309024251744
C-175,3-nitrophenol,"InChI=1S/C6H5NO3/c8-6-3-1-2-5(4-6)7(9)10/h1-4,8H",RTZZCYNQPHTPPL-UHFFFAOYSA-N,O=[N+]([O-])c1cccc(O)c1,-1.07,0.0285,2,G3,139.11,1.3003999999999998,34.76120000000001,10.0,3.0,1.0,4.0,1.0,52.0,1.0,0.0,0.0,1.0,63.37,56.87861259419278,3.069899265759275,258.9247708743934
C-206,3-acetylaminophenol;  3-hydroxyacetanilide,"InChI=1S/C8H9NO2/c1-6(10)9-7-3-2-4-8(11)5-7/h2-5,11H,1H3,(H,9,10)",QLNWXBAGRTUKKI-UHFFFAOYSA-N,CC(=O)Nc1cccc(O)c1,-1.06,0.0,1,G1,151.165,1.3505999999999998,42.41050000000002,11.0,2.0,2.0,3.0,1.0,58.0,1.0,0.0,0.0,1.0,49.33,64.66690538413799,2.790931451480763,270.54949758389114
C-209,3-anisic  acid;  3-methoxybenzoic  acid,"InChI=1S/C8H8O3/c1-11-7-4-2-3-6(5-7)8(9)10/h2-5H,1H3,(H,9,10)",XHQZJYCNDZAGLW-UHFFFAOYSA-N,COc1cccc(C(=O)O)c1,-1.93,0.0,1,G1,152.14899999999997,1.3934,39.953300000000006,11.0,2.0,1.0,3.0,2.0,58.0,1.0,0.0,0.0,1.0,46.53,64.23058843003683,3.00588921891474,267.7946100817276
C-212,2-acetylaminophenol;  2-hydroxyacetanilide,"InChI=1S/C8H9NO2/c1-6(10)9-7-4-2-3-5-8(7)11/h2-5,11H,1H3,(H,9,10)",ADVGKWPZRIDURE-UHFFFAOYSA-N,CC(=O)Nc1ccccc1O,-2.13,0.8191976982932073,3,G4,151.165,1.3505999999999998,42.41050000000002,11.0,2.0,2.0,3.0,1.0,58.0,1.0,0.0,0.0,1.0,49.33,64.66690538413799,2.8574541535636215,270.54949758389114
C-217,2-anisic  acid;  2-methoxybenzoic  acid,"InChI=1S/C8H8O3/c1-11-7-5-3-2-4-6(7)8(9)10/h2-5H,1H3,(H,9,10)",ILUJQPXNXACGAN-UHFFFAOYSA-N,COc1ccccc1C(=O)O,-1.6,0.05835,2,G3,152.14899999999997,1.3934,39.953300000000006,11.0,2.0,1.0,3.0,2.0,58.0,1.0,0.0,0.0,1.0,46.53,64.23058843003683,3.121219318886157,267.7946100817276
C-222,5-methylsalicylic  acid,"InChI=1S/C8H8O3/c1-5-2-3-7(9)6(4-5)8(10)11/h2-4,9H,1H3,(H,10,11)",DLGBEGBHXSAQOC-UHFFFAOYSA-N,Cc1ccc(O)c(C(=O)O)c1,-2.76,0.0,1,G1,152.14899999999997,1.3988199999999995,39.80310000000001,11.0,2.0,2.0,3.0,1.0,58.0,1.0,0.0,0.0,1.0,57.53,63.91127695272596,3.232208870305491,291.3886867286258
C-229,3-nitrobenzaldehyde,InChI=1S/C7H5NO3/c9-5-6-2-1-3-7(4-6)8(10)11/h1-5H,ZETIVVHRRQLWFW-UHFFFAOYSA-N,O=Cc1cccc([N+](=O)[O-])c1,-1.98,0.0064499999999999,2,G3,151.12099999999998,1.4073,38.48390000000001,11.0,3.0,0.0,4.0,2.0,56.0,1.0,0.0,0.0,1.0,60.21,62.61084305643713,3.0995997413346403,295.4920897763861
C-234,ethyl 4-hydroxybenzoate;  ethylparaben,"InChI=1S/C9H10O3/c1-2-12-9(11)7-3-5-8(10)6-4-7/h3-6,10H,2H2,1H3",NUVBSKCKDOMJSU-UHFFFAOYSA-N,CCOC(=O)c1ccc(O)cc1,-2.2,0.1383240245432793,5,G5,166.176,1.5689,44.06330000000003,12.0,3.0,1.0,3.0,2.0,64.0,1.0,0.0,0.0,1.0,46.53,70.59553054443343,2.753742758109602,263.6070662599115
C-239,5-aminosalicylic  acid;  mesalamine;  mesalazine,"InChI=1S/C7H7NO3/c8-4-1-2-6(9)5(3-4)7(10)11/h1-3,9H,8H2,(H,10,11)",KBOPZPXVLCULAV-UHFFFAOYSA-N,Nc1ccc(O)c(C(=O)O)c1,-2.26,0.0,1,G1,153.13699999999997,0.6726000000000001,39.4785,11.0,3.0,3.0,4.0,1.0,58.0,1.0,0.0,0.0,1.0,83.55000000000001,62.88622553534207,3.232208870305491,295.7372022742226
C-242,3-cyanophenyl  isothiocyanate; 3-isothiocyanatobenzonitrile,InChI=1S/C8H4N2S/c9-5-7-2-1-3-8(4-7)10-6-11/h1-4H,UXCYPHCFQAFVFH-UHFFFAOYSA-N,N#Cc1cccc(N=C=S)c1,-3.19,0.0,1,G1,160.201,2.29258,45.84300000000001,11.0,3.0,0.0,3.0,1.0,52.0,1.0,0.0,0.0,1.0,36.15,69.80796976282389,3.124497140594299,345.3548452299175
C-244,methyl  4-methoxybenzoate,"InChI=1S/C9H10O3/c1-11-8-5-3-7(4-6-8)9(10)12-2/h3-6H,1-2H3",DDIZAANNODHTRB-UHFFFAOYSA-N,COC(=O)c1ccc(OC)cc1,-2.34,0.0362,2,G3,166.176,1.4818,44.33350000000002,12.0,3.0,0.0,3.0,2.0,64.0,1.0,0.0,0.0,1.0,35.53,70.9148420217443,2.8435240620306375,263.6070662599115
C-251,"2,5-dihydroxybenzoic   acid;  gentisic  acid","InChI=1S/C7H6O4/c8-4-1-2-6(9)5(3-4)7(10)11/h1-3,8-9H,(H,10,11)",WXTMDXOMEHJXQO-UHFFFAOYSA-N,O=C(O)c1cc(O)ccc1O,-0.85,0.3194499999999999,2,G3,154.12099999999998,0.7959999999999998,36.730900000000005,11.0,3.0,3.0,4.0,1.0,58.0,1.0,0.0,0.0,1.0,77.76,62.34056859052537,3.2322088703054925,292.492089776386
C-256,4-acetamidobenzaldehyde; 4-acetylaminobenzaldehyde,"InChI=1S/C9H9NO2/c1-7(12)10-9-4-2-8(6-11)3-5-9/h2-6H,1H3,(H,10,12)",SKLUWKYNZNXSLX-UHFFFAOYSA-N,CC(=O)Nc1ccc(C=O)cc1,-1.63,0.0249999999999999,2,G3,163.176,1.4574999999999998,46.133200000000016,12.0,2.0,1.0,3.0,2.0,62.0,1.0,0.0,0.0,1.0,46.17,70.39913584638235,2.773021709979395,289.9017744552849
C-265,propylparaben;  propyl 4-hydroxybenzoate,"InChI=1S/C10H12O3/c1-2-7-13-10(12)8-3-5-9(11)6-4-8/h3-6,11H,2,7H2,1H3",QELSKZZBTMNZEB-UHFFFAOYSA-N,CCCOC(=O)c1ccc(O)cc1,-2.68,0.0662930326635716,3,G5,180.20299999999995,1.959,48.68030000000003,13.0,3.0,1.0,3.0,3.0,70.0,1.0,0.0,0.0,1.0,46.53,76.96047265883006,2.611171250638134,276.7262618127396
C-267,"4-isothiocyanato-n,n-dimethylaniline","InChI=1S/C9H10N2S/c1-11(2)9-5-3-8(4-6-9)10-7-12/h3-6H,1-2H3",HRDJPEMAGYHSJR-UHFFFAOYSA-N,CN(C)c1ccc(N=C=S)cc1,-4.13,0.0,1,G1,178.25999999999996,2.4869000000000003,55.45500000000002,12.0,3.0,0.0,3.0,2.0,62.0,1.0,0.0,0.0,1.0,15.6,77.54016586595516,2.922416229196866,296.80950344595533
C-277,2-(phenylhydrazono)malononitrile,"InChI=1S/C9H6N4/c10-6-9(7-11)13-12-8-4-2-1-3-5-8/h1-5,12H",MENUYOGJCXAFFU-UHFFFAOYSA-N,N#CC(C#N)=NNc1ccccc1,-3.36,1.5,2,G2,170.17499999999998,1.50166,48.72570000000001,13.0,4.0,1.0,4.0,2.0,62.0,1.0,0.0,0.0,1.0,71.97,75.72670951532736,2.689252090308924,364.31599561104855
C-283,pentafluorophenol,InChI=1S/C6HF5O/c7-1-2(8)4(10)6(12)5(11)3(1)9/h12H,XBNGYFFABRKICK-UHFFFAOYSA-N,Oc1c(F)c(F)c(F)c(F)c1F,-0.52,0.0,1,G1,184.06299999999996,2.0877,27.8968,12.0,1.0,1.0,6.0,0.0,66.0,1.0,0.0,0.0,1.0,20.23,63.053313886324155,3.603567451474547,230.20322477240757
C-286,2-bromobenzoic acid,"InChI=1S/C7H5BrO2/c8-6-4-2-1-3-5(6)7(9)10/h1-4H,(H,9,10)",XRXMNWGCKISMOH-UHFFFAOYSA-N,O=C(O)c1ccccc1Br,-2.05,0.0076499999999999,2,G3,201.019,2.1473000000000004,41.10130000000001,10.0,1.0,1.0,3.0,1.0,52.0,1.0,0.0,0.0,1.0,37.3,66.61964869177471,3.1529414466808685,257.5379489264805
C-287,chlordimeform,"InChI=1S/C10H13ClN2/c1-8-6-9(11)4-5-10(8)12-7-13(2)3/h4-7H,1-3H3",STUSTWKEFDQFFZ-UHFFFAOYSA-N,Cc1cc(Cl)ccc1N=CN(C)C,-2.88,0.0087999999999999,2,G3,196.681,2.8698200000000016,58.028000000000034,13.0,1.0,0.0,3.0,2.0,70.0,1.0,0.0,0.0,1.0,15.6,83.84959396002857,2.8972050907216187,318.70082633507934
C-310,hippuric  acid;  n-benzoylglycine,"InChI=1S/C9H9NO3/c11-8(12)6-10-9(13)7-4-2-1-3-5-7/h1-5H,6H2,(H,10,13)(H,11,12)",QIAFMBKCNZACKA-UHFFFAOYSA-N,O=C(O)CNC(=O)c1ccccc1,-1.69,0.0264553712252666,3,G5,179.175,0.5009999999999994,46.411000000000016,13.0,2.0,2.0,4.0,3.0,68.0,1.0,0.0,0.0,1.0,66.4,75.19336959857839,2.544573341953591,307.89566977313564
C-314,"monuron;  3-(4-chlorophenyl)-1,1-dimethylurea;  telvar","InChI=1S/C9H11ClN2O/c1-12(2)9(13)11-8-5-3-7(10)4-6-8/h3-6H,1-2H3,(H,11,13)",BMLIZLVNXIYGCK-UHFFFAOYSA-N,CN(C)C(=O)Nc1ccc(Cl)cc1,-2.89,0.0231999999999998,2,G3,198.653,2.4335000000000004,54.15770000000003,13.0,1.0,1.0,4.0,1.0,70.0,1.0,0.0,0.0,1.0,32.34,82.30071364342363,2.6460935389709666,294.9879407824652
C-319,2-nitrobenzoic acid,"InChI=1S/C7H5NO4/c9-7(10)5-3-1-2-4-6(5)8(11)12/h1-4H,(H,9,10)",SLAMLWHELXOEJZ-UHFFFAOYSA-N,O=C(O)c1ccccc1[N+](=O)[O-],-1.35,0.0623453464359788,3,G5,167.11999999999995,1.293,40.055700000000016,12.0,3.0,1.0,5.0,2.0,62.0,1.0,0.0,0.0,1.0,80.44,67.40507680863314,3.267076195703771,300.933190204761
C-322,4-isothiocyanatobenzoic acid,"InChI=1S/C8H5NO2S/c10-8(11)6-1-3-7(4-2-6)9-5-12/h1-4H,(H,10,11)",RBEFRYQKJYMLCC-UHFFFAOYSA-N,O=C(O)c1ccc(N=C=S)cc1,-3.98,0.0,1,G1,179.19999999999996,2.1191,48.08730000000001,12.0,3.0,1.0,4.0,2.0,60.0,1.0,0.0,0.0,1.0,49.66,74.37114593359495,2.999189730319975,317.580422437888