ID,Name,InChI,InChIKey,SMILES,Solubility,SD,Occurrences,Group,MolWt,MolLogP,MolMR,HeavyAtomCount,NumHAcceptors,NumHDonors,NumHeteroatoms,NumRotatableBonds,NumValenceElectrons,NumAromaticRings,NumSaturatedRings,NumAliphaticRings,RingCount,TPSA,LabuteASA,BalabanJ,BertzCT
B-999,1(2h)-isoquinolinone,"InChI=1S/C9H7NO/c11-9-8-4-2-1-3-7(8)5-6-10-9/h1-6H,(H,10,11)",VDBNYAPERZTOOF-UHFFFAOYSA-N,O=c1[nH]ccc2ccccc12,-2.4842,0.0,1,G1,145.16099999999997,1.5281,44.56870000000002,11.0,1.0,1.0,2.0,0.0,54.0,2.0,0.0,0.0,2.0,32.86,63.49423773222244,3.0307899009392414,425.2608208761056
A-2019,"4,4'-cyclohexane-1,1-diylbis(2-methylphenol)","InChI=1S/C20H24O2/c1-14-12-16(6-8-18(14)21)20(10-4-3-5-11-20)17-7-9-19(22)15(2)13-17/h6-9,12-13,21-22H,3-5,10-11H2,1-2H3",SVOBELCYOCEECO-UHFFFAOYSA-N,Cc1cc(C2(c3ccc(O)c(C)c3)CCCCC2)ccc1O,-5.3715223063,0.0,1,G1,296.40999999999997,4.964840000000005,89.55260000000004,22.0,2.0,2.0,2.0,2.0,116.0,2.0,1.0,1.0,3.0,40.46,131.99067059159665,2.1480165624160334,628.6017541173309
A-2131,"Benzenamine, N-phenyl-, styrenated","InChI=1S/C28H27N/c1-21(23-9-5-3-6-10-23)25-13-17-27(18-14-25)29-28-19-15-26(16-20-28)22(2)24-11-7-4-8-12-24/h3-22,29H,1-2H3",BRWSDEFCJGIRLV-UHFFFAOYSA-N,CC(c1ccccc1)c1ccc(Nc2ccc(C(C)c3ccccc3)cc2)cc1,-5.9641687617,0.0,1,G1,377.53100000000006,7.733800000000007,124.08470000000004,29.0,1.0,1.0,1.0,6.0,144.0,4.0,0.0,0.0,4.0,12.03,173.61231637888346,1.4287919863650238,932.165538323895
A-2788,4-(2-phenylpropan-2-yl)-N-[4-(2-phenylpropan-2-yl)phenyl]aniline,"InChI=1S/C30H31N/c1-29(2,23-11-7-5-8-12-23)25-15-19-27(20-16-25)31-28-21-17-26(18-22-28)30(3,4)24-13-9-6-10-14-24/h5-22,31H,1-4H3",UJAWGGOCYUPCPS-UHFFFAOYSA-N,CC(C)(c1ccccc1)c1ccc(Nc2ccc(C(C)(C)c3ccccc3)cc2)cc1,-7.782007082100001,0.0,1,G1,405.5850000000001,8.082000000000008,133.30669999999995,31.0,1.0,1.0,1.0,6.0,156.0,4.0,0.0,0.0,4.0,12.03,186.34220060767672,1.48867566235866,1013.6661342717774
A-4717,sodium 4-[[4-[(4-hydroxy-2-methylphenyl)azo]phenyl]amino]-3-nitrobenzenesulphonate,"InChI=1S/C19H16N4O6S.Na/c1-12-10-15(24)6-8-17(12)22-21-14-4-2-13(3-5-14)20-18-9-7-16(30(27,28)29)11-19(18)23(25)26;/h2-11,20-21H,1H3,(H,27,28,29);/q;+1/p-1/b22-17+;",QUMZGFZWXKDQFW-GDHRODDYSA-M,CC1=CC(=O)C=C/C1=N\Nc1ccc(Nc2ccc(S(=O)(=O)[O-])cc2[N+](=O)[O-])cc1.[Na+],-2.6993635863,0.0,1,G1,450.4080000000002,0.0995999999999996,109.746,31.0,9.0,2.0,12.0,6.0,154.0,2.0,0.0,1.0,3.0,153.82999999999998,199.4797712370469,3.4133282042746447e-06,1220.459152251973
A-2565,Pigment Red 224,InChI=1S/C24H8O6/c25-21-13-5-1-9-10-2-6-15-20-16(24(28)30-23(15)27)8-4-12(18(10)20)11-3-7-14(22(26)29-21)19(13)17(9)11/h1-8H,CLYVDMAATCIVBF-UHFFFAOYSA-N,O=C1OC(=O)c2ccc3c4ccc5c6c(ccc(c7ccc1c2c73)c64)C(=O)OC5=O,-5.5936426625,0.0,1,G1,392.3220000000002,3.546000000000002,114.64800000000002,30.0,6.0,0.0,6.0,0.0,140.0,7.0,0.0,0.0,7.0,94.56,163.73516211837247,1.9470579005489248,1791.045587055725
B-3466,flupoxam,"InChI=1S/C19H14ClF5N4O2/c20-14-7-6-13(8-12(14)9-31-10-18(21,22)19(23,24)25)29-17(11-4-2-1-3-5-11)27-16(28-29)15(26)30/h1-8H,9-10H2,(H2,26,30)",AOQMRUTZEYVDIL-UHFFFAOYSA-N,NC(=O)c1nc(-c2ccccc2)n(-c2ccc(Cl)c(COCC(F)(F)C(F)(F)F)c2)n1,-5.6635,0.0,1,G1,460.79,4.400800000000002,100.98089999999998,31.0,5.0,1.0,12.0,7.0,164.0,3.0,0.0,0.0,3.0,83.03,176.9430848095916,1.9202938365311015,1086.6473423006632
A-1956,"O,O,S-tris(4-aminophenyl) thiophosphate","InChI=1S/C18H18N3O3PS/c19-13-1-7-16(8-2-13)22-25(26,23-17-9-3-14(20)4-10-17)24-18-11-5-15(21)6-12-18/h1-12H,19-21H2",MBUAAMOJATXYKR-UHFFFAOYSA-N,Nc1ccc(OP(=S)(Oc2ccc(N)cc2)Oc2ccc(N)cc2)cc1,-5.3094071365,0.0,1,G1,387.4010000000001,4.1945000000000014,108.7322,26.0,7.0,3.0,8.0,6.0,134.0,3.0,0.0,0.0,3.0,105.75,156.28582741439678,1.876960613088822,793.4828195543632
A-2566,"O,O,O-tris(4-nitrophenyl) thiophosphate","InChI=1S/C18H12N3O9PS/c22-19(23)13-1-7-16(8-2-13)28-31(32,29-17-9-3-14(4-10-17)20(24)25)30-18-11-5-15(6-12-18)21(26)27/h1-12H",DMRUHNJUTAJPSU-UHFFFAOYSA-N,O=[N+]([O-])c1ccc(OP(=S)(Oc2ccc([N+](=O)[O-])cc2)Oc2ccc([N+](=O)[O-])cc2)cc1,-5.6788341975,0.0,1,G1,477.3470000000002,5.172500000000003,115.4582,32.0,10.0,0.0,14.0,9.0,164.0,3.0,0.0,0.0,3.0,157.11,184.225082490858,1.8896076724364457,1050.9072421635276
A-2627,bis(4-isocyanatophenyl) [(4-isocyanatophenyl)sulfanyl]phosphonate,"InChI=1S/C21H12N3O6PS/c25-13-22-16-1-7-19(8-2-16)28-31(32,29-20-9-3-17(4-10-20)23-14-26)30-21-11-5-18(6-12-21)24-15-27/h1-12H",KGLSETWPYVUTQX-UHFFFAOYSA-N,O=C=Nc1ccc(OP(=S)(Oc2ccc(N=C=O)cc2)Oc2ccc(N=C=O)cc2)cc1,-6.4917192558000005,0.0,1,G1,465.38300000000015,5.349800000000004,118.8395,32.0,10.0,0.0,11.0,9.0,158.0,3.0,0.0,0.0,3.0,115.98,186.5315154242601,1.8861579317760233,1116.142647202464
A-5709,"O,O,O-Triphenyl phosphorothioate","InChI=1S/C18H15O3PS/c23-22(19-16-10-4-1-5-11-16,20-17-12-6-2-7-13-17)21-18-14-8-3-9-15-18/h1-15H",IKXFIBBKEARMLL-UHFFFAOYSA-N,S=P(Oc1ccccc1)(Oc1ccccc1)Oc1ccccc1,-6.9546943469,0.1393768004999995,2,G3,342.35600000000005,5.447900000000003,95.49500000000003,23.0,4.0,0.0,5.0,6.0,116.0,3.0,0.0,0.0,3.0,27.69,140.26615532335865,1.868683541996186,670.9628648400081
B-2908,ipt (isoprothiolane),"InChI=1S/C12H18O4S2/c1-7(2)15-10(13)9(11(14)16-8(3)4)12-17-5-6-18-12/h7-8H,5-6H2,1-4H3",UFHLMYOGRXOCSL-UHFFFAOYSA-N,CC(C)OC(=O)C(C(=O)OC(C)C)=C1SCCS1,-3.7306,0.0246999999999999,2,G3,290.406,2.581200000000001,74.39800000000004,18.0,6.0,0.0,6.0,4.0,102.0,0.0,1.0,1.0,1.0,52.60000000000001,115.8545348103105,2.9181647405481215,329.0889112034554
B-1623,diphenyltin dichloride,InChI=1S/2C6H5.2ClH.Sn/c2*1-2-4-6-5-3-1;;;/h2*1-5H;2*1H;/q;;;;+2/p-2,ISXUHJXWYNONDI-UHFFFAOYSA-L,[Cl][Sn]([Cl])([c]1ccccc1)[c]1ccccc1,-3.8373,0.0,1,G1,343.82900000000006,2.720600000000001,69.61200000000002,15.0,0.0,0.0,3.0,2.0,76.0,2.0,0.0,0.0,2.0,0.0,101.14930877372448,2.442186510719565,384.3898117677986
B-2374,ancymidol,"InChI=1S/C15H16N2O2/c1-19-14-6-4-12(5-7-14)15(18,11-2-3-11)13-8-16-10-17-9-13/h4-11,18H,2-3H2,1H3",HUTDUHSNJYTCAR-UHFFFAOYSA-N,COc1ccc(C(O)(c2cncnc2)C2CC2)cc1,-2.5959,0.0,1,G1,256.30499999999995,2.1311,70.74880000000003,19.0,4.0,1.0,4.0,4.0,98.0,2.0,1.0,1.0,3.0,55.24,111.65445168761067,2.0457220869345356,552.1180743775652
B-359,"3,6-diaminoacridine","InChI=1S/C13H11N3/c14-10-3-1-8-5-9-2-4-11(15)7-13(9)16-12(8)6-10/h1-7H,14-15H2",WDVSHHCDHLJJJR-UHFFFAOYSA-N,Nc1ccc2cc3ccc(N)cc3nc2c1,0.3783,0.0,1,G1,209.252,2.5524000000000004,68.0738,16.0,3.0,2.0,3.0,0.0,78.0,3.0,0.0,0.0,3.0,64.93,92.69416155793932,2.4397721399992816,632.1378427386805
B-1222,1-aminoacridine,"InChI=1S/C13H10N2/c14-11-5-3-7-13-10(11)8-9-4-1-2-6-12(9)15-13/h1-8H,14H2",LOMMDWBTANPFEJ-UHFFFAOYSA-N,Nc1cccc2nc3ccccc3cc12,-4.2219999999999995,0.0,1,G1,194.237,2.970200000000001,63.661400000000015,15.0,2.0,1.0,2.0,0.0,72.0,3.0,0.0,0.0,3.0,38.91,87.35427086092659,2.5325611743067453,644.1543647116673
B-4281,acridine,InChI=1S/C13H9N/c1-3-7-12-10(5-1)9-11-6-2-4-8-13(11)14-12/h1-9H,DZBUGLKDJFMEHC-UHFFFAOYSA-N,c1ccc2nc3ccccc3cc2c1,-3.6691,0.0,1,G1,179.22199999999998,3.3880000000000017,59.24900000000002,14.0,1.0,0.0,1.0,0.0,66.0,3.0,0.0,0.0,3.0,12.89,82.0143801639139,2.5237326453890008,493.95635116211264
F-707,2-methylacridin-9-amine,"InChI=1S/C14H12N2/c1-9-6-7-13-11(8-9)14(15)10-4-2-3-5-12(10)16-13/h2-8H,1H3,(H2,15,16)",QQRIRFIZTPHLEM-UHFFFAOYSA-N,Cc1ccc2nc3ccccc3c(N)c2c1,-2.39,0.0,1,G1,208.26400000000004,3.27862,68.39840000000002,16.0,2.0,1.0,2.0,0.0,78.0,3.0,0.0,0.0,3.0,38.91,93.71921297532322,2.558144031902459,686.695477667872
F-710,2-fluoroacridin-9-amine,"InChI=1S/C13H9FN2/c14-8-5-6-12-10(7-8)13(15)9-3-1-2-4-11(9)16-12/h1-7H,(H2,15,16)",HOVVFNPKGWZRTE-UHFFFAOYSA-N,Nc1c2ccccc2nc2ccc(F)cc12,-2.4,0.0,1,G1,212.227,3.109300000000001,63.61940000000003,16.0,2.0,1.0,3.0,0.0,78.0,3.0,0.0,0.0,3.0,38.91,91.51980626385286,2.55814403190246,691.8927302408441
F-711,3-Fluoro-9-acridinamine,"InChI=1S/C13H9FN2/c14-8-5-6-10-12(7-8)16-11-4-2-1-3-9(11)13(10)15/h1-7H,(H2,15,16)",LJCVIUWHTJVXLG-UHFFFAOYSA-N,Nc1c2ccccc2nc2cc(F)ccc12,-2.12,0.0,1,G1,212.227,3.109300000000001,63.61940000000003,16.0,2.0,1.0,3.0,0.0,78.0,3.0,0.0,0.0,3.0,38.91,91.51980626385286,2.55225726979096,691.8927302408441
F-712,4-Fluoro-9-acridinamine,"InChI=1S/C13H9FN2/c14-10-6-3-5-9-12(15)8-4-1-2-7-11(8)16-13(9)10/h1-7H,(H2,15,16)",PUBNSRUKOMGNPM-UHFFFAOYSA-N,Nc1c2ccccc2nc2c(F)cccc12,-1.66,0.0,1,G1,212.227,3.109300000000001,63.61940000000003,16.0,2.0,1.0,3.0,0.0,78.0,3.0,0.0,0.0,3.0,38.91,91.51980626385286,2.60851239964224,691.8927302408441
F-713,1-fluoroacridin-9-amine,"InChI=1S/C13H9FN2/c14-9-5-3-7-11-12(9)13(15)8-4-1-2-6-10(8)16-11/h1-7H,(H2,15,16)",MGMUPJQFUAHIMG-UHFFFAOYSA-N,Nc1c2ccccc2nc2cccc(F)c12,-0.95,0.0,1,G1,212.227,3.109300000000001,63.61940000000003,16.0,2.0,1.0,3.0,0.0,78.0,3.0,0.0,0.0,3.0,38.91,91.51980626385286,2.6154418174030747,691.8927302408441
F-714,1-chloroacridin-9-amine,"InChI=1S/C13H9ClN2/c14-9-5-3-7-11-12(9)13(15)8-4-1-2-6-10(8)16-11/h1-7H,(H2,15,16)",QGLBQYVHYYPKGD-UHFFFAOYSA-N,Nc1c2ccccc2nc2cccc(Cl)c12,-1.58,0.0,1,G1,228.682,3.6236000000000015,68.67140000000002,16.0,2.0,1.0,3.0,0.0,78.0,3.0,0.0,0.0,3.0,38.91,97.6575370878083,2.6154418174030747,691.8927302408441
F-716,2-chloroacridin-9-amine,"InChI=1S/C13H9ClN2/c14-8-5-6-12-10(7-8)13(15)9-3-1-2-4-11(9)16-12/h1-7H,(H2,15,16)",LWEBYMLDVJZRKF-UHFFFAOYSA-N,Nc1c2ccccc2nc2ccc(Cl)cc12,-2.42,0.0,1,G1,228.682,3.6236000000000015,68.67140000000002,16.0,2.0,1.0,3.0,0.0,78.0,3.0,0.0,0.0,3.0,38.91,97.6575370878083,2.55814403190246,691.8927302408441
F-717,3-chloroacridin-9-amine,"InChI=1S/C13H9ClN2/c14-8-5-6-10-12(7-8)16-11-4-2-1-3-9(11)13(10)15/h1-7H,(H2,15,16)",IRSNBSGPKPZUDV-UHFFFAOYSA-N,Nc1c2ccccc2nc2cc(Cl)ccc12,-1.73,0.0,1,G1,228.682,3.6236000000000015,68.67140000000002,16.0,2.0,1.0,3.0,0.0,78.0,3.0,0.0,0.0,3.0,38.91,97.6575370878083,2.55225726979096,691.8927302408441
F-721,1-nitroacridin-9-amine,"InChI=1S/C13H9N3O2/c14-13-8-4-1-2-5-9(8)15-10-6-3-7-11(12(10)13)16(17)18/h1-7H,(H2,14,15)",IOQZSOCPFYNJIG-UHFFFAOYSA-N,Nc1c2ccccc2nc2cccc([N+](=O)[O-])c12,-1.84,0.0,1,G1,239.234,2.878400000000001,70.3158,18.0,4.0,1.0,5.0,1.0,88.0,3.0,0.0,0.0,3.0,82.05,102.0072465834264,2.566842947177284,783.6373142097777
F-723,1-(trifluoromethyl)acridin-9-amine,"InChI=1S/C14H9F3N2/c15-14(16,17)9-5-3-7-11-12(9)13(18)8-4-1-2-6-10(8)19-11/h1-7H,(H2,18,19)",GAWKHTAHYFTCHE-UHFFFAOYSA-N,Nc1c2ccccc2nc2cccc(C(F)(F)F)c12,-2.48,0.0,1,G1,262.234,3.9890000000000008,68.66340000000001,19.0,2.0,1.0,5.0,0.0,96.0,3.0,0.0,0.0,3.0,38.91,106.2158191841019,2.528568497905358,778.582259361945
F-726,3-(trifluoromethyl)acridin-9-amine,"InChI=1S/C14H9F3N2/c15-14(16,17)8-5-6-10-12(7-8)19-11-4-2-1-3-9(11)13(10)18/h1-7H,(H2,18,19)",QMYXIDFAHHRUHP-UHFFFAOYSA-N,Nc1c2ccccc2nc2cc(C(F)(F)F)ccc12,-2.17,0.0,1,G1,262.234,3.9890000000000017,68.66340000000002,19.0,2.0,1.0,5.0,0.0,96.0,3.0,0.0,0.0,3.0,38.91,106.21581918410192,2.3830863777453013,778.5822593619451
F-811,"N'-(6-chloro-2-methoxyacridin-9-yl)-N,N-diethylpentane-1,4-diamine","InChI=1S/C23H30ClN3O/c1-5-27(6-2)13-7-8-16(3)25-23-19-11-9-17(24)14-22(19)26-21-12-10-18(28-4)15-20(21)23/h9-12,14-16H,5-8,13H2,1-4H3,(H,25,26)",GPKJTRJOBQGKQK-UHFFFAOYSA-N,CCN(CC)CCCC(C)Nc1c2ccc(Cl)cc2nc2ccc(OC)cc12,-2.64,0.0,1,G1,399.9660000000001,5.972400000000007,120.91770000000008,28.0,4.0,1.0,5.0,9.0,150.0,3.0,0.0,0.0,3.0,37.39,172.39030861807993,1.918170607741405,939.9226830614328
F-842,"N-hydroxy-7-methyl-1,3,3~{a},4,5,6-hexahydrobenzo[de]isoquinoline-2-carboximidamide","InChI=1S/C14H19N3O/c1-9-5-6-11-8-17(14(15)16-18)7-10-3-2-4-12(9)13(10)11/h5-6,10,18H,2-4,7-8H2,1H3,(H2,15,16)",FGFHFHXVPZXINJ-UHFFFAOYSA-N,Cc1ccc2c3c1CCCC3CN(C(N)=NO)C2,-1.2,0.0,1,G1,245.32599999999996,1.93442,70.67690000000002,18.0,2.0,2.0,4.0,0.0,96.0,1.0,0.0,2.0,3.0,61.849999999999994,107.08259683236156,2.0539279301542335,510.005722459738
F-843,"7-methoxy-1,3,3~{a},4,5,6-hexahydrobenzo[de]isoquinoline-2-carboximidamide","InChI=1S/C14H19N3O/c1-18-12-6-5-10-8-17(14(15)16)7-9-3-2-4-11(12)13(9)10/h5-6,9H,2-4,7-8H2,1H3,(H3,15,16)",QXMMQNXWHZTAPW-UHFFFAOYSA-N,COc1ccc2c3c1CCCC3CN(C(=N)N)C2,-1.22,0.0,1,G1,245.326,1.8241700000000003,70.99710000000003,18.0,2.0,2.0,4.0,1.0,96.0,1.0,0.0,2.0,3.0,62.34,107.23789832359913,2.08176053554905,498.0576256632339
F-844,"N-hydroxy-1,3,3~{a},4,5,6-hexahydrobenzo[de]isoquinoline-2-carboximidamide","InChI=1S/C13H17N3O/c14-13(15-17)16-7-10-5-1-3-9-4-2-6-11(8-16)12(9)10/h1,3,5,11,17H,2,4,6-8H2,(H2,14,15)",JPENUURSSUNMFN-UHFFFAOYSA-N,NC(=NO)N1Cc2cccc3c2C(CCC3)C1,-1.35,0.0,1,G1,231.29899999999995,1.6259999999999992,65.93990000000002,17.0,2.0,2.0,4.0,0.0,90.0,1.0,0.0,2.0,3.0,61.85,100.71765471796496,2.015630978955184,469.7324210960026
F-848,"N-hydroxy-7-methoxy-1,3,3~{a},4,5,6-hexahydrobenzo[de]isoquinoline-2-carboximidamide","InChI=1S/C14H19N3O2/c1-19-12-6-5-10-8-17(14(15)16-18)7-9-3-2-4-11(12)13(9)10/h5-6,9,18H,2-4,7-8H2,1H3,(H2,15,16)",KZYCDFBBCIFABO-UHFFFAOYSA-N,COc1ccc2c3c1CCCC3CN(C(N)=NO)C2,-1.78,0.0,1,G1,261.325,1.6346,72.49190000000003,19.0,3.0,2.0,5.0,1.0,102.0,1.0,0.0,2.0,3.0,71.08,112.19614206186846,2.0488597379496687,527.6675162671245
D-1547,thebaine,"InChI=1S/C19H21NO3/c1-20-9-8-19-12-5-7-15(22-3)18(19)23-17-14(21-2)6-4-11(16(17)19)10-13(12)20/h4-7,13,18H,8-10H2,1-3H3/t13-,18+,19+/m1/s1",FQXXSQDCDRQNQE-VMDGZTHMSA-N,COC1=CC=C2[C@H]3Cc4ccc(OC)c5c4[C@@]2(CCN3C)[C@H]1O5,-2.661,0.0,1,G1,311.3810000000001,2.4245,87.00200000000005,23.0,4.0,0.0,4.0,2.0,120.0,1.0,1.0,4.0,5.0,30.93,135.87358928689147,1.83945022276946,766.1233848323809
A-425,"propane-1,2-diyl dibenzoate","InChI=1S/C17H16O4/c1-13(21-17(19)15-10-6-3-7-11-15)12-20-16(18)14-8-4-2-5-9-14/h2-11,13H,12H2,1H3",UMVMVEZHMZTUHD-UHFFFAOYSA-N,CC(COC(=O)c1ccccc1)OC(=O)c1ccccc1,-4.5673029377,0.0,1,G1,284.311,3.0889000000000015,78.04400000000004,21.0,4.0,0.0,4.0,5.0,108.0,2.0,0.0,0.0,2.0,52.6,122.86334255664536,1.8123485966934216,592.7018774454453
A-5070,2-(benzoyloxy)ethyl benzoate,"InChI=1S/C16H14O4/c17-15(13-7-3-1-4-8-13)19-11-12-20-16(18)14-9-5-2-6-10-14/h1-10H,11-12H2",XFDQLDNQZFOAFK-UHFFFAOYSA-N,O=C(OCCOC(=O)c1ccccc1)c1ccccc1,-5.0700925015,0.0,1,G1,270.28400000000005,2.700400000000001,73.44900000000004,20.0,4.0,0.0,4.0,5.0,102.0,2.0,0.0,0.0,2.0,52.6,116.49840044224877,1.7195651335450064,510.0454481461554
F-503,2-[2-(2-carboxybenzoyl)oxyethoxycarbonyl]benzoic acid,"InChI=1S/C18H14O8/c19-15(20)11-5-1-3-7-13(11)17(23)25-9-10-26-18(24)14-8-4-2-6-12(14)16(21)22/h1-8H,9-10H2,(H,19,20)(H,21,22)",KJDIOINTBBPCAD-UHFFFAOYSA-N,O=C(O)c1ccccc1C(=O)OCCOC(=O)c1ccccc1C(=O)O,-2.83,0.0,1,G1,358.30199999999996,2.0968,87.36760000000002,26.0,6.0,2.0,8.0,7.0,134.0,2.0,0.0,0.0,2.0,127.2,147.13979637552148,1.914909321044272,784.2745275041751
B-3333,"pyran, 2,2'-oxybis[tetrahydro-6-methyl-","InChI=1S/C12H22O3/c1-9-5-3-7-11(13-9)15-12-8-4-6-10(2)14-12/h9-12H,3-8H2,1-2H3",DVRJCBOAIPILPC-UHFFFAOYSA-N,CC1CCCC(OC2CCCC(C)O2)O1,-1.1083,0.0,1,G1,214.30499999999995,2.8332000000000015,57.45700000000005,15.0,3.0,0.0,3.0,2.0,88.0,0.0,2.0,2.0,2.0,27.69,92.0825876676544,1.7481699866538731,175.3062531800184
A-2045,2-phenylethyl (2E)-3-phenylprop-2-enoate,"InChI=1S/C17H16O2/c18-17(12-11-15-7-3-1-4-8-15)19-14-13-16-9-5-2-6-10-16/h1-12H,13-14H2/b12-11+",MJQVZIANGRDJBT-VAWYXSNFSA-N,O=C(/C=C/c1ccccc1)OCCc1ccccc1,-5.4019396274,0.14074915555,2,G3,252.313,3.4857000000000022,76.58100000000005,19.0,2.0,0.0,2.0,5.0,96.0,2.0,0.0,0.0,2.0,26.3,112.89867219491045,1.7467859348215091,529.7032274575292
C-786,testosterone  phenylbutyrate,"InChI=1S/C29H38O3/c1-28-17-15-22(30)19-21(28)11-12-23-24-13-14-26(29(24,2)18-16-25(23)28)32-27(31)10-6-9-20-7-4-3-5-8-20/h3-5,7-8,19,23-26H,6,9-18H2,1-2H3",KPKRHHWUOMEERQ-UHFFFAOYSA-N,CC12CCC(=O)C=C1CCC1C2CCC2(C)C(OC(=O)CCCc3ccccc3)CCC12,-5.43,0.0,1,G1,434.62000000000023,6.4530000000000065,125.97000000000006,32.0,3.0,0.0,3.0,5.0,172.0,1.0,3.0,4.0,5.0,43.370000000000005,192.54873353391216,1.2168037884037015,902.2368732834968
B-3222,enalapril,"InChI=1S/C20H28N2O5/c1-3-27-20(26)16(12-11-15-8-5-4-6-9-15)21-14(2)18(23)22-13-7-10-17(22)19(24)25/h4-6,8-9,14,16-17,21H,3,7,10-13H2,1-2H3,(H,24,25)/t14-,16-,17-/m0/s1",GBXSMTUPTTWBMN-XIRDDKMYSA-N,CCOC(=O)[C@H](CCc1ccccc1)N[C@@H](C)C(=O)N1CCC[C@H]1C(=O)O,-1.3609,0.0,1,G1,376.45300000000026,1.6046,100.15250000000007,27.0,5.0,2.0,7.0,9.0,148.0,1.0,1.0,1.0,2.0,95.94,159.23680270316586,2.007036624624265,649.031972845491
F-1139,1-[2-[(1-ethoxy-1-oxo-4-phenylbutan-2-yl)amino]propanoyl]pyrrolidine-2-carboxylic acid,"InChI=1S/C20H28N2O5/c1-3-27-20(26)16(12-11-15-8-5-4-6-9-15)21-14(2)18(23)22-13-7-10-17(22)19(24)25/h4-6,8-9,14,16-17,21H,3,7,10-13H2,1-2H3,(H,24,25)",GBXSMTUPTTWBMN-UHFFFAOYSA-N,CCOC(=O)C(CCc1ccccc1)NC(C)C(=O)N1CCCC1C(=O)O,-1.18,0.0,1,G1,376.45300000000026,1.6046,100.15250000000007,27.0,5.0,2.0,7.0,9.0,148.0,1.0,1.0,1.0,2.0,95.94,159.23680270316586,2.007036624624265,649.031972845491
C-2581,reserpine,"InChI=1S/C33H40N2O9/c1-38-19-7-8-20-21-9-10-35-16-18-13-27(44-32(36)17-11-25(39-2)30(41-4)26(12-17)40-3)31(42-5)28(33(37)43-6)22(18)15-24(35)29(21)34-23(20)14-19/h7-8,11-12,14,18,22,24,27-28,31,34H,9-10,13,15-16H2,1-6H3",QEVHRUUCFGRFIF-UHFFFAOYSA-N,COC(=O)C1C2CC3c4[nH]c5cc(OC)ccc5c4CCN3CC2CC(OC(=O)c2cc(OC)c(OC)c(OC)c2)C1OC,-5.97,0.0,1,G1,608.6880000000003,4.171100000000004,160.68719999999965,44.0,10.0,1.0,11.0,8.0,236.0,3.0,2.0,3.0,6.0,117.78000000000002,256.1734234680975,1.293564642858826,1526.4817827505706
B-1701,alpha-pinene oxide,"InChI=1S/C10H16O/c1-9(2)6-4-7(9)10(3)8(5-6)11-10/h6-8H,4-5H2,1-3H3",NQFUSWIGRKFAHK-UHFFFAOYSA-N,CC1(C)C2CC3OC3(C)C1C2,-2.5937,0.0,1,G1,152.237,2.2099,43.27300000000001,11.0,1.0,0.0,1.0,0.0,62.0,0.0,4.0,4.0,4.0,12.53,68.11978182631822,1.9803152559514368,216.15777938858872
F-531,2-[(2-aminophenyl)methylideneamino]phenol,"InChI=1S/C13H12N2O/c14-11-6-2-1-5-10(11)9-15-12-7-3-4-8-13(12)16/h1-9,16H,14H2",ODTBAYMRNMZGQX-UHFFFAOYSA-N,Nc1ccccc1C=Nc1ccccc1O,-3.64,0.0,1,G1,212.252,2.7250000000000005,66.21520000000002,16.0,3.0,2.0,3.0,2.0,80.0,2.0,0.0,0.0,2.0,58.61,93.88288637502646,2.28803107215856,473.3459730554756
C-863,oxycarboxin,"InChI=1S/C12H13NO4S/c1-9-11(18(15,16)8-7-17-9)12(14)13-10-5-3-2-4-6-10/h2-6H,7-8H2,1H3,(H,13,14)",AMEKQAFGQBKLKX-UHFFFAOYSA-N,CC1=C(C(=O)Nc2ccccc2)S(=O)(=O)CCO1,-2.43,0.0745500000000001,2,G3,267.306,1.3016,67.51050000000004,18.0,4.0,1.0,6.0,2.0,96.0,1.0,0.0,1.0,2.0,72.47,105.3759495151084,2.2854342658256472,589.7632423953789
C-1691,prasterone formate,"InChI=1S/C20H28O3/c1-19-9-7-14(23-12-21)11-13(19)3-4-15-16-5-6-18(22)20(16,2)10-8-17(15)19/h3,12,14-17H,4-11H2,1-2H3",HTTHUZJPMIHIOQ-UHFFFAOYSA-N,CC12CCC3C(CC=C4CC(OC=O)CCC43C)C1CCC2=O,-4.41,0.0,1,G1,316.4410000000001,4.059900000000003,87.64700000000005,23.0,3.0,0.0,3.0,2.0,126.0,0.0,3.0,4.0,4.0,43.370000000000005,138.3968129846583,1.625287724578085,565.2340945668728
C-1745,"prasterone  acetate;  dehydroepiandrosterone  acetate; prasterone acetate; 5,6-dehydroisoandrosterone acetate","InChI=1S/C21H30O3/c1-13(22)24-15-8-10-20(2)14(12-15)4-5-16-17-6-7-19(23)21(17,3)11-9-18(16)20/h4,15-18H,5-12H2,1-3H3",NCMZQTLCXHGLOK-UHFFFAOYSA-N,CC(=O)OC1CCC2(C)C(=CCC3C4CCC(=O)C4(C)CCC32)C1,-4.53,0.0350000000000001,2,G3,330.4680000000001,4.450000000000004,92.26400000000004,24.0,3.0,0.0,3.0,1.0,132.0,0.0,3.0,4.0,4.0,43.370000000000005,144.76175509905497,1.5973719061421665,606.2051148204893
C-1771,prasterone  propionate,"InChI=1S/C22H32O3/c1-4-20(24)25-15-9-11-21(2)14(13-15)5-6-16-17-7-8-19(23)22(17,3)12-10-18(16)21/h5,15-18H,4,6-13H2,1-3H3",XECLXJZDYKMJFL-UHFFFAOYSA-N,CCC(=O)OC1CCC2(C)C(=CCC3C4CCC(=O)C4(C)CCC32)C1,-4.69,0.0,1,G1,344.4950000000001,4.840100000000005,96.88100000000006,25.0,3.0,0.0,3.0,2.0,138.0,0.0,3.0,4.0,4.0,43.370000000000005,151.12669721345154,1.5617613559656522,620.761871865839
C-1826,"5,6-dehydroisoandrosterone  valerate;  prasterone  valerate","InChI=1S/C24H36O3/c1-4-5-6-22(26)27-17-11-13-23(2)16(15-17)7-8-18-19-9-10-21(25)24(19,3)14-12-20(18)23/h7,17-20H,4-6,8-15H2,1-3H3",XAFPTAQBZXAXLR-UHFFFAOYSA-N,CCCCC(=O)OC1CCC2(C)C(=CCC3C4CCC(=O)C4(C)CCC32)C1,-4.76,0.0,1,G1,372.54900000000015,5.6203000000000065,106.11500000000008,27.0,3.0,0.0,3.0,4.0,150.0,0.0,3.0,4.0,4.0,43.370000000000005,163.85658144224476,1.4791223604277055,650.011726309394