ID,Name,InChI,InChIKey,SMILES,Solubility,SD,Occurrences,Group,MolWt,MolLogP,MolMR,HeavyAtomCount,NumHAcceptors,NumHDonors,NumHeteroatoms,NumRotatableBonds,NumValenceElectrons,NumAromaticRings,NumSaturatedRings,NumAliphaticRings,RingCount,TPSA,LabuteASA,BalabanJ,BertzCT
C-2530,"4-methyl-5-(3-nitrobenzenesulfonylimido)-delta2-1,3,4-thiadiazoline-2-sulfonamide","InChI=1S/C9H9N5O6S3/c1-13-8(21-9(11-13)22(10,17)18)12-23(19,20)7-4-2-3-6(5-7)14(15)16/h2-5H,1H3,(H2,10,17,18)",BODJFESIQMWAAQ-UHFFFAOYSA-N,Cn1nc(S(N)(=O)=O)sc1=NS(=O)(=O)c1cccc([N+](=O)[O-])c1,-2.67,0.0,1,G1,379.4010000000001,-0.6731999999999998,78.30340000000001,23.0,9.0,1.0,14.0,4.0,124.0,2.0,0.0,0.0,2.0,167.62,133.52126441746498,2.600981331366207,1049.3409179857592
C-2534,"2-sulfamoyl-4-methyl-5-(4-acetamidobenzenesulfonylimido)-1,3,4-thiadiazoline; 5-(4-acetylaminobenzenesulfonylimido)-4-methyl-delta2-1,3,4-thiadiazoline-2-sulfonamide","InChI=1S/C11H13N5O5S3/c1-7(17)13-8-3-5-9(6-4-8)24(20,21)15-10-16(2)14-11(22-10)23(12,18)19/h3-6H,1-2H3,(H,13,17)(H2,12,18,19)",COYOSRWVLQSZNN-UHFFFAOYSA-N,CC(=O)Nc1ccc(S(=O)(=O)N=c2sc(S(N)(=O)=O)nn2C)cc1,-1.69,0.0,1,G1,391.4560000000002,-0.6229999999999989,85.95270000000002,24.0,8.0,2.0,13.0,4.0,130.0,2.0,0.0,0.0,2.0,153.57999999999998,141.30955720741025,2.445965211993147,1048.214262519496
C-2535,"5-(2-carboxybenzenesulfonylimido)-4-methyl-delta2-1,3,4-thiadiazoline-2-sulfonamide","InChI=1S/C10H10N4O6S3/c1-14-9(21-10(12-14)22(11,17)18)13-23(19,20)7-5-3-2-4-6(7)8(15)16/h2-5H,1H3,(H,15,16)(H2,11,17,18)",RAJJRSWYQMFJLA-UHFFFAOYSA-N,Cn1nc(S(N)(=O)=O)sc1=NS(=O)(=O)c1ccccc1C(=O)O,-2.51,0.0,1,G1,378.4130000000001,-0.8831999999999987,78.60830000000001,23.0,8.0,2.0,13.0,4.0,124.0,2.0,0.0,0.0,2.0,161.78,134.1889866616016,2.683304720145757,1048.2606025243033
C-2538,"4-methyl-5-(2-nitrobenzenesulfonylimido)-delta2-1,3,4-thiadiazoline-2-sulfonamide","InChI=1S/C9H9N5O6S3/c1-13-8(21-9(11-13)22(10,17)18)12-23(19,20)7-5-3-2-4-6(7)14(15)16/h2-5H,1H3,(H2,10,17,18)",QHRGLLUMIFLPBM-UHFFFAOYSA-N,Cn1nc(S(N)(=O)=O)sc1=NS(=O)(=O)c1ccccc1[N+](=O)[O-],-2.79,0.0,1,G1,379.4010000000001,-0.6731999999999998,78.30340000000001,23.0,9.0,1.0,14.0,4.0,124.0,2.0,0.0,0.0,2.0,167.62,133.52126441746498,2.683304720145757,1049.3409179857592
C-2543,"5-(4-iodobenzenesulfonylimido)-4-methyl-2-sulfonamido-delta2-1,3,4-thiadiazoline","InChI=1S/C9H9IN4O4S3/c1-14-8(19-9(12-14)20(11,15)16)13-21(17,18)7-4-2-6(10)3-5-7/h2-5H,1H3,(H2,11,15,16)",JRLUKPGVTTYGLT-UHFFFAOYSA-N,Cn1nc(S(N)(=O)=O)sc1=NS(=O)(=O)c1ccc(I)cc1,-2.77,0.0,1,G1,460.30000000000007,0.0232000000000004,84.36600000000001,21.0,7.0,1.0,12.0,3.0,114.0,2.0,0.0,0.0,2.0,124.48,138.13012681600884,2.57840316906822,941.6241355703394
C-2555,"5-(4-chloro-3-nitrobenzenesulfonyl-imido)-4-methyl-2-sulfonamido-delta2-1,3,4-thiadiazoline","InChI=1S/C9H8ClN5O6S3/c1-14-8(22-9(12-14)23(11,18)19)13-24(20,21)5-2-3-6(10)7(4-5)15(16)17/h2-4H,1H3,(H2,11,18,19)",UFQSGSXDRVNGIM-UHFFFAOYSA-N,Cn1nc(S(N)(=O)=O)sc1=NS(=O)(=O)c1ccc(Cl)c([N+](=O)[O-])c1,-2.47,0.0,1,G1,413.8460000000002,-0.0197999999999994,83.3134,24.0,9.0,1.0,15.0,4.0,130.0,2.0,0.0,0.0,2.0,167.62,143.82453064434668,2.63076024510674,1100.9338424019345
C-2566,"5-(2,4-dinitrobenzenesulfonylimido)-4-methyl-2-sulfonamido-delta2-1,3,4-thiadiazoline","InChI=1S/C9H8N6O8S3/c1-13-8(24-9(11-13)25(10,20)21)12-26(22,23)7-3-2-5(14(16)17)4-6(7)15(18)19/h2-4H,1H3,(H2,10,20,21)",SUCOUIBVJOOUIQ-UHFFFAOYSA-N,Cn1nc(S(N)(=O)=O)sc1=NS(=O)(=O)c1ccc([N+](=O)[O-])cc1[N+](=O)[O-],-2.74,0.0,1,G1,424.3980000000002,-0.7649999999999997,84.95779999999999,26.0,11.0,1.0,17.0,5.0,140.0,2.0,0.0,0.0,2.0,210.76,148.17424013996478,2.7120249125032942,1192.2842838459658
B-4280,"1,7-phenanthroline",InChI=1S/C12H8N2/c1-3-9-5-6-11-10(4-2-7-13-11)12(9)14-8-1/h1-8H,OZKOMUDCMCEDTM-UHFFFAOYSA-N,c1cnc2c(c1)ccc1ncccc12,-2.6806,0.0,1,G1,180.21,2.7830000000000004,57.044000000000025,14.0,2.0,0.0,2.0,0.0,66.0,3.0,0.0,0.0,3.0,25.78,81.2340281448604,2.610318687415942,547.2925174892929
A-4041,"copper(2+) ion tetrasodium 8-[(4-amino-6-chloro-1,3,5-triazin-2-yl)amino]-2-[(E)-2-(1-oxido-4,8-disulfonatonaphthalen-2-yl)diazen-1-yl]-3,6-disulfonatonaphthalen-1-olate","InChI=1S/C23H16ClN7O14S4.Cu.4Na/c24-21-27-22(25)29-23(28-21)26-11-6-9(46(34,35)36)4-8-5-15(49(43,44)45)18(20(33)16(8)11)31-30-12-7-14(48(40,41)42)10-2-1-3-13(47(37,38)39)17(10)19(12)32;;;;;/h1-7,32-33H,(H,34,35,36)(H,37,38,39)(H,40,41,42)(H,43,44,45)(H3,25,26,27,28,29);;;;;/q;+2;4*+1/p-6",BQWFGICULAHUSM-UHFFFAOYSA-H,Nc1nc(Cl)nc(Nc2cc(S(=O)(=O)[O-])cc3cc(S(=O)(=O)[O-])c(N=Nc4cc(S(=O)(=O)[O-])c5cccc(S(=O)(=O)[O-])c5c4[O-])c([O-])c23)n1.[Cu+2].[Na+].[Na+].[Na+].[Na+],-0.5907814418999999,0.0,1,G1,927.5950000000004,-11.650300000000009,155.34889999999993,54.0,21.0,2.0,31.0,8.0,267.0,5.0,0.0,0.0,5.0,376.3599999999999,408.55989179754937,5.6179970813798995e-06,2752.3451642260006
B-2096,kryptocyanine,"InChI=1S/C25H25N2.HI/c1-3-26-18-16-20(22-12-5-7-14-24(22)26)10-9-11-21-17-19-27(4-2)25-15-8-6-13-23(21)25;/h5-19H,3-4H2,1-2H3;1H/q+1;/p-1",CEJANLKHJMMNQB-UHFFFAOYSA-M,CCN1C=CC(=CC=Cc2cc[n+](CC)c3ccccc23)c2ccccc21.[I-],-2.6816,0.0,1,G1,480.39300000000026,2.6016000000000012,115.43000000000004,28.0,1.0,0.0,3.0,4.0,142.0,3.0,0.0,1.0,4.0,7.12,184.0781883055593,2.2499975512527404e-06,1063.0858353496606
B-3154,fluvalinate,"InChI=1S/C26H22ClF3N2O3/c1-16(2)24(32-22-12-11-18(14-21(22)27)26(28,29)30)25(33)35-23(15-31)17-7-6-10-20(13-17)34-19-8-4-3-5-9-19/h3-14,16,23-24,32H,1-2H3",INISTDXBRIBGOC-UHFFFAOYSA-N,CC(C)C(Nc1ccc(C(F)(F)F)cc1Cl)C(=O)OC(C#N)c1cccc(Oc2ccccc2)c1,-8.0025,0.1987500000000004,2,G3,502.9200000000002,7.395680000000005,126.1067,35.0,5.0,1.0,9.0,8.0,182.0,3.0,0.0,0.0,3.0,71.35,205.59605530659252,1.7542695134519983,1210.4541526746402
C-1396,"succinimid-1-ylmethyl  acetylsalicylate;  n-[(2-acetoxy)benzoyloxymethyl]pyrrolidine-2,5-dione","InChI=1S/C14H13NO6/c1-9(16)21-11-5-3-2-4-10(11)14(19)20-8-15-12(17)6-7-13(15)18/h2-5H,6-8H2,1H3",LNIRSJVVXSYEBA-UHFFFAOYSA-N,CC(=O)Oc1ccccc1C(=O)OCN1C(=O)CCC1=O,-2.77,0.0,1,G1,291.259,0.8752,69.12050000000002,21.0,6.0,0.0,7.0,4.0,110.0,1.0,1.0,1.0,2.0,89.98000000000002,119.9781214105328,2.0504254803550057,593.2367251456668
B-2033,sulfamethomidine,"InChI=1S/C12H14N4O3S/c1-8-14-11(7-12(15-8)19-2)16-20(17,18)10-5-3-9(13)4-6-10/h3-7H,13H2,1-2H3,(H,14,15,16)",QKLSCPPJEVXONT-UHFFFAOYSA-N,COc1cc(NS(=O)(=O)c2ccc(N)cc2)nc(C)n1,-2.543,0.0,1,G1,294.33600000000007,1.17662,74.98390000000002,20.0,6.0,2.0,8.0,4.0,106.0,2.0,0.0,0.0,2.0,107.2,116.42175151878992,2.3259791707111312,713.9823358039899
B-4487,sulfadimethoxine,"InChI=1S/C12H14N4O4S/c1-19-11-7-10(14-12(15-11)20-2)16-21(17,18)9-5-3-8(13)4-6-9/h3-7H,13H2,1-2H3,(H,14,15,16)",ZZORFUFYDOWNEF-UHFFFAOYSA-N,COc1cc(NS(=O)(=O)c2ccc(N)cc2)nc(OC)n1,-2.9565,0.0,1,G1,310.3350000000001,0.8768,76.79890000000002,21.0,7.0,2.0,9.0,5.0,112.0,2.0,0.0,0.0,2.0,116.43,121.53529674829684,2.3363061545836903,709.172688016295
C-870,"sulfisomidine;  2,6-dimethyl-4-sulfapyrimidine","InChI=1S/C12H14N4O2S/c1-8-7-12(15-9(2)14-8)16-19(17,18)11-5-3-10(13)4-6-11/h3-7H,13H2,1-2H3,(H,14,15,16)",YZMCKZRAOLZXAZ-UHFFFAOYSA-N,Cc1cc(NS(=O)(=O)c2ccc(N)cc2)nc(C)n1,-2.3,0.0356431698303552,3,G5,278.337,1.4764399999999998,73.16890000000002,19.0,5.0,2.0,7.0,3.0,100.0,2.0,0.0,0.0,2.0,97.97,111.30820628928308,2.330509006052534,675.9193645265303
A-2145,"1-(4-{[4-(2,5-dioxo-2,5-dihydro-1H-pyrrol-1-yl)phenyl]methyl}phenyl)-2,5-dihydro-1H-pyrrole-2,5-dione","InChI=1S/C21H14N2O4/c24-18-9-10-19(25)22(18)16-5-1-14(2-6-16)13-15-3-7-17(8-4-15)23-20(26)11-12-21(23)27/h1-12H,13H2",XQUPVDVFXZDTLT-UHFFFAOYSA-N,O=C1C=CC(=O)N1c1ccc(Cc2ccc(N3C(=O)C=CC3=O)cc2)cc1,-5.9980085438,0.0,1,G1,358.3530000000001,2.1361999999999997,98.95600000000005,27.0,4.0,0.0,6.0,4.0,132.0,2.0,0.0,2.0,4.0,74.76,154.5478637242853,1.465397906726139,897.6520651109073
B-862,"7h-dibenzo(c,g)carbazole","InChI=1S/C20H13N/c1-3-7-15-13(5-1)9-11-17-19(15)20-16-8-4-2-6-14(16)10-12-18(20)21-17/h1-12,21H",STJXCDGCXVZHDU-UHFFFAOYSA-N,c1ccc2c(c1)ccc1[nH]c3ccc4ccccc4c3c12,-6.6277,0.0,1,G1,267.331,5.627500000000004,90.81670000000004,21.0,0.0,1.0,1.0,0.0,98.0,5.0,0.0,0.0,5.0,15.79,121.3672216674521,2.178301949101568,1041.9691570759296
C-463,trihexyphenidyl,"InChI=1S/C20H31NO/c22-20(18-10-4-1-5-11-18,19-12-6-2-7-13-19)14-17-21-15-8-3-9-16-21/h1,4-5,10-11,19,22H,2-3,6-9,12-17H2",HWHLPVGTWGOCJO-UHFFFAOYSA-N,OC(CCN1CCCCC1)(c1ccccc1)C1CCCCC1,-5.2,1.69,2,G2,301.47399999999993,4.330500000000004,91.82180000000008,22.0,2.0,1.0,2.0,5.0,122.0,1.0,2.0,2.0,3.0,23.47,135.08299783639043,1.7265103084694822,434.28028308676033
A-5951,"4-[(E)-2-(2,3-dichlorophenyl)diazen-1-yl]-N-(5-{4-[(E)-2-(2,3-dichlorophenyl)diazen-1-yl]-3-hydroxynaphthalene-2-amido}naphthalen-1-yl)-3-hydroxynaphthalene-2-carboxamide","InChI=1S/C44H26Cl4N6O4/c45-31-15-7-19-35(37(31)47)51-53-39-25-11-3-1-9-23(25)21-29(41(39)55)43(57)49-33-17-5-14-28-27(33)13-6-18-34(28)50-44(58)30-22-24-10-2-4-12-26(24)40(42(30)56)54-52-36-20-8-16-32(46)38(36)48/h1-22,51-52H,(H,49,57)(H,50,58)/b53-39-,54-40+",BUYSBTOYLGJGAQ-OOJZLWMKSA-N,O=C(Nc1cccc2c(NC(=O)C3=Cc4ccccc4/C(=N\Nc4cccc(Cl)c4Cl)C3=O)cccc12)C1=Cc2ccccc2/C(=N/Nc2cccc(Cl)c2Cl)C1=O,-9.227651248,0.0,1,G1,844.5419999999999,10.295399999999994,233.30279999999976,58.0,8.0,4.0,14.0,8.0,284.0,6.0,0.0,2.0,8.0,141.12,350.3895163023514,1.0599291653459233,2691.3456054408
B-1073,tryptazan,"InChI=1S/C10H11N3O2/c11-7(10(14)15)5-9-6-3-1-2-4-8(6)12-13-9/h1-4,7H,5,11H2,(H,12,13)(H,14,15)",IFEKQNAXDMZERW-UHFFFAOYSA-N,NC(Cc1[nH]nc2ccccc12)C(=O)O,-1.4091,0.0,1,G1,205.217,0.5172999999999994,55.40890000000001,15.0,3.0,3.0,5.0,3.0,78.0,2.0,0.0,0.0,2.0,92.0,85.90080251404004,2.323487371389896,492.1280872682805
B-2694,ethychlozate,"InChI=1S/C11H11ClN2O2/c1-2-16-11(15)6-10-8-5-7(12)3-4-9(8)13-14-10/h3-5H,2,6H2,1H3,(H,13,14)",GLPZEHFBLBYFHN-UHFFFAOYSA-N,CCOC(=O)Cc1[nH]nc2ccc(Cl)cc12,-3.0256,0.0,1,G1,238.674,2.3219000000000003,61.44070000000002,16.0,3.0,1.0,5.0,3.0,84.0,2.0,0.0,0.0,2.0,54.98,97.54843163561644,2.3036607238603297,521.6789615900019
B-3156,cyprofuram,"InChI=1S/C14H14ClNO3/c15-10-2-1-3-11(8-10)16(13(17)9-4-5-9)12-6-7-19-14(12)18/h1-3,8-9,12H,4-7H2",KRZUZYJEQBXUIN-UHFFFAOYSA-N,O=C1OCCC1N(C(=O)C1CC1)c1cccc(Cl)c1,-2.6878,0.0,1,G1,279.723,2.3985000000000003,71.02600000000002,19.0,3.0,0.0,5.0,3.0,100.0,1.0,2.0,2.0,3.0,46.61,115.83896705429083,1.9518399104339397,527.1772912714513
C-989,cephalothin,"InChI=1S/C16H16N2O6S2/c1-8(19)24-6-9-7-26-15-12(14(21)18(15)13(9)16(22)23)17-11(20)5-10-3-2-4-25-10/h2-4,12,15H,5-7H2,1H3,(H,17,20)(H,22,23)",XIURVHNZVLADCM-UHFFFAOYSA-N,CC(=O)OCC1=C(C(=O)O)N2C(=O)C(NC(=O)Cc3cccs3)C2SC1,-2.94,0.0,1,G1,396.4460000000001,0.5922999999999998,94.34050000000003,26.0,7.0,2.0,10.0,6.0,138.0,1.0,1.0,2.0,3.0,113.01000000000002,156.73647968447966,1.6915380267707596,788.6704465871796
A-1569,"5-nitro-2,3-dihydro-1H-1,2,4-triazol-3-one","InChI=1S/C2H2N4O3/c7-2-3-1(4-5-2)6(8)9/h(H2,3,4,5,7)",QJTIRVUEVSKJTK-UHFFFAOYSA-N,O=c1nc([N+](=O)[O-])[nH][nH]1,-0.8786253202,0.0,1,G1,130.06300000000002,-0.9938000000000002,25.8628,9.0,4.0,2.0,7.0,1.0,48.0,1.0,0.0,0.0,1.0,104.67999999999998,47.86281089335258,3.12237209752183,271.3401569753606
B-984,santonin,"InChI=1S/C15H18O3/c1-8-10-4-6-15(3)7-5-11(16)9(2)12(15)13(10)18-14(8)17/h5,7-8,10,13H,4,6H2,1-3H3/t8-,10-,13-,15-/m0/s1",XJHDMGJURBVLLE-BOCCBSBMSA-N,CC1=C2[C@H]3OC(=O)[C@@H](C)[C@@H]3CC[C@@]2(C)C=CC1=O,-3.0905,0.0,1,G1,246.30599999999995,2.419600000000001,66.72200000000002,18.0,3.0,0.0,3.0,0.0,96.0,0.0,2.0,3.0,3.0,43.370000000000005,106.88833053402028,2.0989565315857823,499.8681035469155
B-3110,penconazole,"InChI=1S/C13H15Cl2N3/c1-2-3-10(7-18-9-16-8-17-18)12-5-4-11(14)6-13(12)15/h4-6,8-10H,2-3,7H2,1H3",WKBPZYKAUNRMKP-UHFFFAOYSA-N,CCCC(Cn1cncn1)c1ccc(Cl)cc1Cl,-3.5903,0.0,1,G1,284.19,4.168800000000003,74.13300000000004,18.0,3.0,0.0,5.0,5.0,96.0,2.0,0.0,0.0,2.0,30.71,116.74662178921476,2.230390674272061,496.9423932078171
B-3221,diclobutrazol isomers,"InChI=1S/C15H19Cl2N3O/c1-15(2,3)14(21)13(20-9-18-8-19-20)6-10-4-5-11(16)7-12(10)17/h4-5,7-9,13-14,21H,6H2,1-3H3",URDNHJIVMYZFRT-UHFFFAOYSA-N,CC(C)(C)C(O)C(Cc1ccc(Cl)cc1Cl)n1cncn1,-4.5619,0.0,1,G1,328.243,3.7757000000000023,84.68680000000005,21.0,4.0,1.0,6.0,4.0,114.0,2.0,0.0,0.0,2.0,50.94,134.27073977020393,2.325045637565901,593.4613526947602
B-3254,hexaconazole,"InChI=1S/C14H17Cl2N3O/c1-2-3-6-14(20,8-19-10-17-9-18-19)12-5-4-11(15)7-13(12)16/h4-5,7,9-10,20H,2-3,6,8H2,1H3",STMIIPIFODONDC-UHFFFAOYSA-N,CCCCC(O)(Cn1cncn1)c1ccc(Cl)cc1Cl,-4.2668,0.0,1,G1,314.216,3.6629000000000023,79.90580000000004,20.0,4.0,1.0,6.0,6.0,108.0,2.0,0.0,0.0,2.0,50.94,127.90579765580736,2.3409479177908294,559.551588526042
C-685,myclobutanil,"InChI=1S/C15H17ClN4/c1-2-3-8-15(9-17,10-20-12-18-11-19-20)13-4-6-14(16)7-5-13/h4-7,11-12H,2-3,8,10H2,1H3",HZJKXKUJVSEEFU-UHFFFAOYSA-N,CCCCC(C#N)(Cn1cncn1)c1ccc(Cl)cc1,-3.31,0.0,1,G1,288.78200000000004,3.583280000000002,78.29000000000003,20.0,4.0,0.0,5.0,6.0,104.0,2.0,0.0,0.0,2.0,54.5,123.56581947259502,2.357871703320212,570.9210237184806
C-1374,paclobutrazol,"InChI=1S/C15H20ClN3O/c1-15(2,3)14(20)13(19-10-17-9-18-19)8-11-4-6-12(16)7-5-11/h4-7,9-10,13-14,20H,8H2,1-3H3",RMOGWMIKYWRTKW-UHFFFAOYSA-N,CC(C)(C)C(O)C(Cc1ccc(Cl)cc1)n1cncn1,-4.05,0.0,1,G1,293.798,3.122300000000001,79.67680000000004,20.0,4.0,1.0,5.0,4.0,108.0,2.0,0.0,0.0,2.0,50.94,123.9674735433223,2.255633017608437,531.2463109985574
A-331,(5Z)-5-ethylidenebicyclo[2.2.1]hept-2-ene,"InChI=1S/C9H12/c1-2-8-5-7-3-4-9(8)6-7/h2-4,7,9H,5-6H2,1H3/b8-2+",OJOWICOBYCXEKR-KRXBUXKQSA-N,C/C=C1\CC2C=CC1C2,-3.1767964148,0.4768517925999997,2,G3,120.19499999999996,2.5287000000000006,39.111,9.0,0.0,0.0,0.0,0.0,48.0,0.0,1.0,2.0,2.0,0.0,56.26791957157544,2.2890296293112073,174.47733175670794
A-6031,"3,3'-[(2-chloro-5-methyl-p-phenylene)bis[imino(1-acetyl-2-oxoethylene)azo]]bis[4-chloro-N-[2-(4-chlorophenoxy)-5-(trifluoromethyl)phenyl]benzamide]","InChI=1S/C55H37Cl5F6N8O8/c1-26-20-41(68-53(80)49(28(3)76)74-72-43-22-30(5-17-38(43)59)51(78)70-45-24-32(55(64,65)66)7-19-47(45)82-36-14-10-34(57)11-15-36)39(60)25-40(26)67-52(79)48(27(2)75)73-71-42-21-29(4-16-37(42)58)50(77)69-44-23-31(54(61,62)63)6-18-46(44)81-35-12-8-33(56)9-13-35/h4-25,48-49H,1-3H3,(H,67,79)(H,68,80)(H,69,77)(H,70,78)",VOCMTGRPDQPZFA-UHFFFAOYSA-N,CC(=O)C(N=Nc1cc(C(=O)Nc2cc(C(F)(F)F)ccc2Oc2ccc(Cl)cc2)ccc1Cl)C(=O)Nc1cc(Cl)c(NC(=O)C(N=Nc2cc(C(=O)Nc3cc(C(F)(F)F)ccc3Oc3ccc(Cl)cc3)ccc2Cl)C(C)=O)cc1C,-7.6916832495,0.0,1,G1,1229.2019999999995,16.748819999999984,296.1688000000004,82.0,12.0,4.0,27.0,18.0,422.0,7.0,0.0,0.0,7.0,218.44,485.3169868776893,1.022751176965322,3479.0693468632703
C-2544,cefazolin,"InChI=1S/C14H14N8O4S3/c1-6-17-18-14(29-6)28-4-7-3-27-12-9(11(24)22(12)10(7)13(25)26)16-8(23)2-21-5-15-19-20-21/h5,9,12H,2-4H2,1H3,(H,16,23)(H,25,26)",MLYYVTUWGNIJIB-UHFFFAOYSA-N,Cc1nnc(SCC2=C(C(=O)O)N3C(=O)C(NC(=O)Cn4cnnn4)C3SC2)s1,-2.62,0.0,1,G1,454.51900000000023,-0.6360799999999995,102.87150000000004,29.0,12.0,2.0,15.0,7.0,152.0,2.0,1.0,2.0,4.0,156.08999999999995,175.66786055792275,1.4374120949777265,990.913744308179
C-1362,phenyl  5-fluorouracil-3-carboxylate;  3-phenyloxycarbonyl-5-fluorouracil,"InChI=1S/C11H7FN2O4/c12-8-6-13-10(16)14(9(8)15)11(17)18-7-4-2-1-3-5-7/h1-6H,(H,13,16)",OKVXWLFRHOXZPA-UHFFFAOYSA-N,O=C(Oc1ccccc1)n1c(=O)[nH]cc(F)c1=O,-3.22,0.0,1,G1,250.185,0.7228,59.14470000000001,18.0,5.0,1.0,7.0,1.0,92.0,2.0,0.0,0.0,2.0,81.16,99.26635382101036,2.3913979294905476,690.179667570346
F-489,1-nitrosonaphthalen-2-ol,"InChI=1S/C10H7NO2/c12-9-6-5-7-3-1-2-4-8(7)10(9)11-13/h1-6,13H",CAQHPYSDQFDJAL-UHFFFAOYSA-N,O=C1C=Cc2ccccc2C1=NO,-2.94,0.0,1,G1,173.171,1.4608,48.80650000000001,13.0,3.0,1.0,3.0,0.0,64.0,1.0,0.0,1.0,2.0,49.66,75.00085422894777,2.670687492607174,418.68785180637263
B-3487,cafenstrole,"InChI=1S/C16H22N4O3S/c1-6-19(7-2)16(21)20-10-17-15(18-20)24(22,23)14-12(4)8-11(3)9-13(14)5/h8-10H,6-7H2,1-5H3",HFEJHAAIJZXXRE-UHFFFAOYSA-N,CCN(CC)C(=O)n1cnc(S(=O)(=O)c2c(C)cc(C)cc2C)n1,-5.1467,0.0,1,G1,350.4440000000001,2.3460600000000005,89.84180000000005,24.0,6.0,0.0,8.0,4.0,130.0,2.0,0.0,0.0,2.0,85.16,141.78166983067496,2.479849022999368,844.1928380699638
A-5695,"4-[(1,5-dihydro-3-methyl-5-oxo-1-phenyl-4H-pyrazol-4-ylidene)methyl]-2,4-dihydro-5-methyl-2-phenyl-3H-pyrazol-3-one","InChI=1S/C21H18N4O2/c1-14-18(20(26)24(22-14)16-9-5-3-6-10-16)13-19-15(2)23-25(21(19)27)17-11-7-4-8-12-17/h3-13,18H,1-2H3/b19-13+",QPAPQRFSPBUJAU-CPNJWEJPSA-N,CC1=NN(c2ccccc2)C(=O)/C1=C/C1C(=O)N(c2ccccc2)N=C1C,-7.8822713548,0.0,1,G1,358.40100000000007,3.3744000000000023,105.64700000000002,27.0,4.0,0.0,6.0,3.0,134.0,2.0,0.0,2.0,4.0,65.34,156.6453395685722,1.6262360742183612,993.3563807341048
C-2549,flubenzimine,"InChI=1S/C17H10F6N4S/c18-16(19,20)25-13-14(26-17(21,22)23)28-15(24-11-7-3-1-4-8-11)27(13)12-9-5-2-6-10-12/h1-10H",IZFZCMFMJKDHJZ-UHFFFAOYSA-N,FC(F)(F)N=C1SC(=Nc2ccccc2)N(c2ccccc2)C1=NC(F)(F)F,-5.42,0.0,1,G1,416.3500000000001,5.764100000000004,97.02900000000002,28.0,4.0,0.0,11.0,2.0,146.0,2.0,1.0,1.0,3.0,40.32,158.86950031472125,2.2049866698846214,920.1589460243688
A-1886,"2,4,6,8,10-pentamethyl-1,3,5,7,9,2,4,6,8,10-pentaoxapentasilecane",InChI=1S/C5H15O5Si5/c1-11-6-12(2)8-14(4)10-15(5)9-13(3)7-11/h1-5H3,PUNGSQUVTIDKNU-UHFFFAOYSA-N,C[Si]1O[Si](C)O[Si](C)O[Si](C)O[Si](C)O1,0.5292955703,0.0,1,G1,295.6,0.6729999999999998,63.51500000000003,15.0,5.0,0.0,10.0,0.0,85.0,0.0,1.0,1.0,1.0,46.150000000000006,99.8825090894052,2.545062749921742,140.2129994085646
A-553,cyclohexyl 2-hydroxybenzoate,"InChI=1S/C13H16O3/c14-12-9-5-4-8-11(12)13(15)16-10-6-2-1-3-7-10/h4-5,8-10,14H,1-3,6-7H2",NUQDJSMHGCTKNL-UHFFFAOYSA-N,O=C(OC1CCCCC1)c1ccccc1O,-4.5540762927,0.0322996231000001,2,G3,220.26799999999992,2.8817000000000013,60.395300000000034,16.0,3.0,1.0,3.0,2.0,86.0,1.0,1.0,1.0,2.0,46.53,95.04946784849064,1.9953977722801717,367.1953853570544
A-2137,"3,3,5-trimethylcyclohexyl 2-hydroxybenzoate","InChI=1S/C16H22O3/c1-11-8-12(10-16(2,3)9-11)19-15(18)13-6-4-5-7-14(13)17/h4-7,11-12,17H,8-10H2,1-3H3",WSSJONWNBBTCMG-UHFFFAOYSA-N,CC1CC(OC(=O)c2ccccc2O)CC(C)(C)C1,-5.816819421799999,0.0,1,G1,262.349,3.763800000000004,74.10630000000005,19.0,3.0,1.0,3.0,2.0,104.0,1.0,1.0,1.0,2.0,46.53,114.1442941916805,2.0508210540811196,464.81677938817273
A-2910,"trisodium 5-({4-chloro-6-[(2-methylphenyl)amino]-1,3,5-triazin-2-yl}amino)-4-hydroxy-3-[(E)-2-(2-sulfonatophenyl)diazen-1-yl]naphthalene-2,7-disulfonate","InChI=1S/C26H20ClN7O10S3.3Na/c1-13-6-2-3-7-16(13)28-25-30-24(27)31-26(32-25)29-18-12-15(45(36,37)38)10-14-11-20(47(42,43)44)22(23(35)21(14)18)34-33-17-8-4-5-9-19(17)46(39,40)41;;;/h2-12,33H,1H3,(H,36,37,38)(H,39,40,41)(H,42,43,44)(H2,28,29,30,31,32);;;/q;3*+1/p-3/b34-22-;;;",GBFBZNVXLZXZMP-GTHSLJRASA-K,Cc1ccccc1Nc1nc(Cl)nc(Nc2cc(S(=O)(=O)[O-])cc3c2C(=O)/C(=N\Nc2ccccc2S(=O)(=O)[O-])C(S(=O)(=O)[O-])=C3)n1.[Na+].[Na+].[Na+],-0.4572403676,0.0,1,G1,788.0850000000003,-6.308680000000002,164.45419999999987,50.0,17.0,3.0,24.0,9.0,244.0,4.0,0.0,1.0,5.0,275.78999999999996,356.49684634890036,2.8899973675682432e-06,2382.369552508469
A-1381,1H-benzimidazole,"InChI=1S/C7H6N2/c1-2-4-7-6(3-1)8-5-9-7/h1-5H,(H,8,9)",HYZJCKYKOHLVJF-UHFFFAOYSA-N,c1ccc2[nH]cnc2c1,-1.769197233,0.0,1,G1,118.13899999999995,1.5629,36.09370000000001,9.0,1.0,1.0,2.0,0.0,44.0,2.0,0.0,0.0,2.0,28.68,52.54187605319297,2.954659790285104,280.89393676634353
B-2011,"2-cf3-4,5-dichlorobenzimidazole","InChI=1S/C8H3Cl2F3N2/c9-3-1-2-4-6(5(3)10)15-7(14-4)8(11,12)13/h1-2H,(H,14,15)",KSROTSBULDYPKA-UHFFFAOYSA-N,FC(F)(F)c1nc2c(Cl)c(Cl)ccc2[nH]1,-3.5677,0.0,1,G1,255.026,3.8885,51.1157,15.0,1.0,1.0,7.0,0.0,80.0,2.0,0.0,0.0,2.0,28.68,92.0099568301316,2.716164445381658,518.3165183204861
B-3976,2-methylbenaimidazole,"InChI=1S/C8H8N2/c1-6-9-7-4-2-3-5-8(7)10-6/h2-5H,1H3,(H,9,10)",LDZYRENCLPUXAX-UHFFFAOYSA-N,Cc1nc2ccccc2[nH]1,-1.9598,0.0,1,G1,132.16599999999997,1.87132,40.830700000000014,10.0,1.0,1.0,2.0,0.0,50.0,2.0,0.0,0.0,2.0,28.68,58.906818167589584,2.876510166944625,315.7850778806647