ID,Name,InChI,InChIKey,SMILES,Solubility,SD,Occurrences,Group,MolWt,MolLogP,MolMR,HeavyAtomCount,NumHAcceptors,NumHDonors,NumHeteroatoms,NumRotatableBonds,NumValenceElectrons,NumAromaticRings,NumSaturatedRings,NumAliphaticRings,RingCount,TPSA,LabuteASA,BalabanJ,BertzCT
B-3765,2-iodobenzoic acid,"InChI=1S/C7H5IO2/c8-6-4-2-1-3-5(6)7(9)10/h1-4H,(H,9,10)",CJNZAXGUTKBIHP-UHFFFAOYSA-N,O=C(O)c1ccccc1I,-2.7308,0.1553999999999999,2,G3,248.01899999999995,1.9894,46.11830000000001,10.0,1.0,1.0,3.0,1.0,52.0,1.0,0.0,0.0,1.0,37.3,72.01393920717697,3.1529414466808685,257.53794892648057
B-3768,m-toluic acid,"InChI=1S/C8H8O2/c1-6-3-2-4-7(5-6)8(9)10/h2-5H,1H3,(H,9,10)",GPSDUZXPYCFOSQ-UHFFFAOYSA-N,Cc1cccc(C(=O)O)c1,-2.1428,0.0336,2,G3,136.14999999999998,1.69322,38.13830000000001,10.0,1.0,1.0,2.0,1.0,52.0,1.0,0.0,0.0,1.0,37.3,59.11704320052995,3.069899265759275,253.1894333808838
B-3771,p-methoxybenzoic acid,"InChI=1S/C8H8O3/c1-11-7-4-2-6(3-5-7)8(9)10/h2-5H,1H3,(H,9,10)",ZEYHEAKUIGZSGI-UHFFFAOYSA-N,COc1ccc(C(=O)O)cc1,-2.458,0.2159999999999999,2,G3,152.14899999999997,1.3934,39.953300000000006,11.0,2.0,1.0,3.0,2.0,58.0,1.0,0.0,0.0,1.0,46.53,64.23058843003683,2.9138015626758045,250.5446100817276
B-3772,o-toluic acid,"InChI=1S/C8H8O2/c1-6-4-2-3-5-7(6)8(9)10/h2-5H,1H3,(H,9,10)",ZWLPBLYKEWSWPD-UHFFFAOYSA-N,Cc1ccccc1C(=O)O,-2.0621,0.05895,2,G3,136.14999999999998,1.69322,38.13830000000001,10.0,1.0,1.0,2.0,1.0,52.0,1.0,0.0,0.0,1.0,37.3,59.11704320052995,3.1529414466808685,253.1894333808838
B-3776,m-fluorobenzoic acid,"InChI=1S/C7H5FO2/c8-6-3-1-2-5(4-6)7(9)10/h1-4H,(H,9,10)",MXNBDFWNYRNIBH-UHFFFAOYSA-N,O=C(O)c1cccc(F)c1,-1.9704,0.0,1,G1,140.113,1.5239,33.359300000000005,10.0,1.0,1.0,3.0,1.0,52.0,1.0,0.0,0.0,1.0,37.3,56.91763648905958,3.069899265759275,257.53794892648057
B-3777,p-fluorobenzoic acid,"InChI=1S/C7H5FO2/c8-6-3-1-5(2-4-6)7(9)10/h1-4H,(H,9,10)",BBYDXOIZLAWGSL-UHFFFAOYSA-N,O=C(O)c1ccc(F)cc1,-2.0673,0.0,1,G1,140.113,1.5239,33.359300000000005,10.0,1.0,1.0,3.0,1.0,52.0,1.0,0.0,0.0,1.0,37.3,56.91763648905958,3.003400684579818,240.2879489264805
B-3778,m-chlorobenzoic acid,"InChI=1S/C7H5ClO2/c8-6-3-1-2-5(4-6)7(9)10/h1-4H,(H,9,10)",LULAYUGMBFYYEX-UHFFFAOYSA-N,O=C(O)c1cccc(Cl)c1,-2.5415,0.0242499999999998,2,G3,156.56799999999998,2.0382,38.41130000000001,10.0,1.0,1.0,3.0,1.0,52.0,1.0,0.0,0.0,1.0,37.3,63.05536731301502,3.069899265759275,257.53794892648057
B-3779,cumic acid,"InChI=1S/C10H12O2/c1-7(2)8-3-5-9(6-4-8)10(11)12/h3-7H,1-2H3,(H,11,12)",CKMXAIVXVKGGFM-UHFFFAOYSA-N,CC(C)c1ccc(C(=O)O)cc1,-3.0364,0.0,1,G1,164.20399999999995,2.5082000000000004,47.490300000000026,12.0,1.0,1.0,2.0,2.0,64.0,1.0,0.0,0.0,1.0,37.3,71.84692742932317,2.9291455995407594,272.39498298772276
B-3782,m-bromobenzoic acid,"InChI=1S/C7H5BrO2/c8-6-3-1-2-5(4-6)7(9)10/h1-4H,(H,9,10)",VOIZNVUXCQLQHS-UHFFFAOYSA-N,O=C(O)c1cccc(Br)c1,-2.699,0.0855000000000001,2,G3,201.019,2.1473000000000004,41.10130000000001,10.0,1.0,1.0,3.0,1.0,52.0,1.0,0.0,0.0,1.0,37.3,66.61964869177471,3.069899265759275,257.53794892648057
B-3783,p-bromobenzoic acid,"InChI=1S/C7H5BrO2/c8-6-3-1-5(2-4-6)7(9)10/h1-4H,(H,9,10)",TUXYZHVUPGXXQG-UHFFFAOYSA-N,O=C(O)c1ccc(Br)cc1,-3.5251,0.1624499999999999,2,G3,201.019,2.1473000000000004,41.10130000000001,10.0,1.0,1.0,3.0,1.0,52.0,1.0,0.0,0.0,1.0,37.3,66.61964869177471,3.003400684579818,240.2879489264805
B-3784,3-iodobenzoic acid,"InChI=1S/C7H5IO2/c8-6-3-1-2-5(4-6)7(9)10/h1-4H,(H,9,10)",KVBWBCRPWVKFQT-UHFFFAOYSA-N,O=C(O)c1cccc(I)c1,-3.2706,0.1447,2,G3,248.019,1.9894,46.118300000000005,10.0,1.0,1.0,3.0,1.0,52.0,1.0,0.0,0.0,1.0,37.3,72.01393920717699,3.069899265759275,257.53794892648057
B-3785,4-iodobenzoic acid,"InChI=1S/C7H5IO2/c8-6-3-1-5(2-4-6)7(9)10/h1-4H,(H,9,10)",GHICCUXQJBDNRN-UHFFFAOYSA-N,O=C(O)c1ccc(I)cc1,-3.9631,0.03845,2,G3,248.019,1.9894,46.11830000000001,10.0,1.0,1.0,3.0,1.0,52.0,1.0,0.0,0.0,1.0,37.3,72.01393920717699,3.003400684579818,240.2879489264805
B-3794,benzyl alcohol,"InChI=1S/C7H8O/c8-6-7-4-2-1-3-5-7/h1-5,8H,6H2",WVDDGKGOMKODPV-UHFFFAOYSA-N,OCc1ccccc1,-0.4319,0.0159499999999999,2,G3,108.13999999999996,1.1789,32.364799999999995,8.0,1.0,1.0,1.0,1.0,42.0,1.0,0.0,0.0,1.0,20.23,48.59057898608958,2.8320858350070908,145.73281445033504
B-3801,3-phenylpropanol,"InChI=1S/C9H12O/c10-8-4-7-9-5-2-1-3-6-9/h1-3,5-6,10H,4,7-8H2",VAJVDSVGBWFCLW-UHFFFAOYSA-N,OCCCc1ccccc1,-1.3798,0.06884047255,2,G3,136.194,1.6115,41.848800000000026,10.0,1.0,1.0,1.0,3.0,54.0,1.0,0.0,0.0,1.0,20.23,61.3204632148828,2.4265223465879537,169.34295735705518
B-3810,p-methyl benzyl alcohol,"InChI=1S/C8H10O/c1-7-2-4-8(6-9)5-3-7/h2-5,9H,6H2,1H3",KMTDMTZBNYGUNX-UHFFFAOYSA-N,Cc1ccc(CO)cc1,-1.1999,0.0,1,G1,122.167,1.48732,37.1018,9.0,1.0,1.0,1.0,1.0,48.0,1.0,0.0,0.0,1.0,20.23,54.95552110048619,2.8815558776461354,176.26405299160078
B-3818,"2,6-dichlorobenzyl alcohol","InChI=1S/C7H6Cl2O/c8-6-2-1-3-7(9)5(6)4-10/h1-3,10H,4H2",WKKHCCZLKYKUDN-UHFFFAOYSA-N,OCc1c(Cl)cccc1Cl,-2.1019,0.0,1,G1,177.03,2.4857000000000005,42.38480000000002,10.0,1.0,1.0,3.0,1.0,54.0,1.0,0.0,0.0,1.0,20.23,69.19711143985293,3.1694511920127173,214.79775799182192
B-3873,o-nitrobenzaldehyde,InChI=1S/C7H5NO3/c9-5-6-3-1-2-4-7(6)8(10)11/h1-5H,CMWKITSNTDAEDT-UHFFFAOYSA-N,O=Cc1ccccc1[N+](=O)[O-],-1.8138,0.0,1,G1,151.12099999999998,1.4073,38.48390000000001,11.0,3.0,0.0,4.0,2.0,56.0,1.0,0.0,0.0,1.0,60.21,62.61084305643713,3.223906041284385,295.4920897763861
B-3874,p-nitrobenzaldehyde,InChI=1S/C7H5NO3/c9-5-6-1-3-7(4-2-6)8(10)11/h1-5H,BXRFQSNOROATLV-UHFFFAOYSA-N,O=Cc1ccc([N+](=O)[O-])cc1,-1.8101,0.0,1,G1,151.12099999999998,1.4073,38.48390000000001,11.0,3.0,0.0,4.0,2.0,56.0,1.0,0.0,0.0,1.0,60.21,62.61084305643713,3.000886645997868,278.2420897763861
B-3906,butyl benzoate,"InChI=1S/C11H14O2/c1-2-3-9-13-11(12)10-7-5-4-6-8-10/h4-8H,2-3,9H2,1H3",XSIFPSYPOVKYCO-UHFFFAOYSA-N,CCCCOC(=O)c1ccccc1,-3.4801,0.0,1,G1,178.231,2.6435000000000013,51.63250000000003,13.0,2.0,0.0,2.0,4.0,70.0,1.0,0.0,0.0,1.0,26.3,78.53118102103066,2.404796656306514,254.05260581186823
B-3907,benzyl acetate,"InChI=1S/C9H10O2/c1-8(10)11-7-9-5-3-2-4-6-9/h2-6H,7H2,1H3",QUKGYYKBILRGFE-UHFFFAOYSA-N,CC(=O)OCc1ccccc1,-1.6853,0.0,1,G1,150.177,1.7496999999999998,41.91200000000003,11.0,2.0,0.0,2.0,2.0,58.0,1.0,0.0,0.0,1.0,26.3,65.80129679223744,2.453018743531937,228.57786591623355
B-3914,di-i-propyl phthalate,"InChI=1S/C14H18O4/c1-9(2)17-13(15)11-7-5-6-8-12(11)14(16)18-10(3)4/h5-10H,1-4H3",QWDBCIAVABMJPP-UHFFFAOYSA-N,CC(C)OC(=O)c1ccccc1C(=O)OC(C)C,-2.8773,0.0,1,G1,250.294,2.817000000000001,67.54500000000004,18.0,4.0,0.0,4.0,4.0,98.0,1.0,0.0,0.0,1.0,52.60000000000001,106.9010746937711,2.988528119899692,394.17506138831783
B-3940,benzonitrile,InChI=1S/C7H5N/c8-6-7-4-2-1-3-5-7/h1-5H,JFDZBHWFFUWGJE-UHFFFAOYSA-N,N#Cc1ccccc1,-1.7123,1.7483777639386462,3,G4,103.12399999999997,1.55828,31.156999999999996,8.0,1.0,0.0,1.0,0.0,38.0,1.0,0.0,0.0,1.0,23.79,48.188924915362286,3.049388908161901,195.37685258695325
B-3946,"2,6-dichlorobenzonitrile",InChI=1S/C7H3Cl2N/c8-6-2-1-3-7(9)5(6)4-10/h1-3H,YOYAIZYFCNQIRF-UHFFFAOYSA-N,N#Cc1c(Cl)cccc1Cl,-3.9803,0.12985,2,G3,172.01399999999998,2.8650800000000007,41.17700000000001,10.0,1.0,0.0,3.0,0.0,50.0,1.0,0.0,0.0,1.0,23.79,68.79545736912563,3.3427746227314072,267.89784791592245
B-4019,2-nitrotoluene,"InChI=1S/C7H7NO2/c1-6-4-2-3-5-7(6)8(9)10/h2-5H,1H3",PLAZTCDQAHEYBI-UHFFFAOYSA-N,Cc1ccccc1[N+](=O)[O-],-2.3243,0.084830663535087,3,G5,137.138,1.90322,37.83340000000001,10.0,2.0,0.0,3.0,1.0,52.0,1.0,0.0,0.0,1.0,43.14,58.44932095639337,3.1529414466808685,257.53794892648057
B-4020,2-nitroanisole,"InChI=1S/C7H7NO3/c1-11-7-5-3-2-4-6(7)8(9)10/h2-5H,1H3",CFBYEGUGFPZCNF-UHFFFAOYSA-N,COc1ccccc1[N+](=O)[O-],-1.9572,0.0,1,G1,153.13699999999997,1.6033999999999995,39.64840000000002,11.0,3.0,0.0,4.0,2.0,58.0,1.0,0.0,0.0,1.0,52.37,63.562866185900255,3.121219318886157,272.1431256273244
B-4023,"1,3,5-trinitrobenzene",InChI=1S/C6H3N3O6/c10-7(11)4-1-5(8(12)13)3-6(2-4)9(14)15/h1-3H,UATJOMSPNYCXIX-UHFFFAOYSA-N,O=[N+]([O-])c1cc([N+](=O)[O-])cc([N+](=O)[O-])c1,-2.8846,0.0,1,G1,213.10499999999996,1.4112,46.4052,15.0,6.0,0.0,9.0,3.0,78.0,1.0,0.0,0.0,1.0,129.42000000000002,81.39033028699635,3.387380075453351,377.17334888764094
B-4024,"1,3-dinitrobenzene",InChI=1S/C6H4N2O4/c9-7(10)5-2-1-3-6(4-5)8(11)12/h1-4H,WDCYWAQPCXBPJA-UHFFFAOYSA-N,O=[N+]([O-])c1cccc([N+](=O)[O-])c1,-2.4989,0.1044499999999999,2,G3,168.10799999999995,1.503,39.75080000000001,12.0,4.0,0.0,6.0,2.0,62.0,1.0,0.0,0.0,1.0,86.28,66.73735456449656,3.121805775248301,306.8248996548373
B-4026,p-nitroanisole,"InChI=1S/C7H7NO3/c1-11-7-4-2-6(3-5-7)8(9)10/h2-5H,1H3",BNUHAJGCKIQFGE-UHFFFAOYSA-N,COc1ccc([N+](=O)[O-])cc1,-2.4142,0.0,1,G1,153.13699999999997,1.6033999999999995,39.64840000000002,11.0,3.0,0.0,4.0,2.0,58.0,1.0,0.0,0.0,1.0,52.37,63.562866185900255,2.9138015626758045,254.89312562732437
B-4027,p-dinitrobenzene,InChI=1S/C6H4N2O4/c9-7(10)5-1-2-6(4-3-5)8(11)12/h1-4H,FYFDQJRXFWGIBS-UHFFFAOYSA-N,O=[N+]([O-])c1ccc([N+](=O)[O-])cc1,-3.3867,0.0,1,G1,168.10799999999995,1.503,39.75080000000001,12.0,4.0,0.0,6.0,2.0,62.0,1.0,0.0,0.0,1.0,86.28,66.73735456449656,3.0061498337295465,285.8248996548373
B-4028,"2,4,6-trinitrotoluene","InChI=1S/C7H5N3O6/c1-4-6(9(13)14)2-5(8(11)12)3-7(4)10(15)16/h2-3H,1H3",SPSSULHKWOKEEL-UHFFFAOYSA-N,Cc1c([N+](=O)[O-])cc([N+](=O)[O-])cc1[N+](=O)[O-],-3.2423,0.0135622535002421,3,G5,227.132,1.7196200000000006,51.1422,16.0,6.0,0.0,9.0,3.0,84.0,1.0,0.0,0.0,1.0,129.42000000000002,87.75527240139297,3.5727545380551327,461.8906850873485
B-4030,o-dinitrobenzene,InChI=1S/C6H4N2O4/c9-7(10)5-3-1-2-4-6(5)8(11)12/h1-4H,IZUKQUVSCNEFMJ-UHFFFAOYSA-N,O=[N+]([O-])c1ccccc1[N+](=O)[O-],-3.1017,0.0,1,G1,168.10799999999995,1.503,39.75080000000001,12.0,4.0,0.0,6.0,2.0,62.0,1.0,0.0,0.0,1.0,86.28,66.73735456449656,3.267076195703771,303.0748996548373
B-4031,m-nitroanisole,"InChI=1S/C7H7NO3/c1-11-7-4-2-3-6(5-7)8(9)10/h2-5H,1H3",WGYFINWERLNPHR-UHFFFAOYSA-N,COc1cccc([N+](=O)[O-])c1,-2.4861,0.0,1,G1,153.13699999999997,1.6033999999999995,39.64840000000002,11.0,3.0,0.0,4.0,2.0,58.0,1.0,0.0,0.0,1.0,52.37,63.562866185900255,3.0058892189147386,272.1431256273244
B-4032,"1,3-dino2 2-methyl benzene","InChI=1S/C7H6N2O4/c1-5-6(8(10)11)3-2-4-7(5)9(12)13/h2-4H,1H3",XTRDKALNCIHHNI-UHFFFAOYSA-N,Cc1c([N+](=O)[O-])cccc1[N+](=O)[O-],-3.0003,0.0,1,G1,182.135,1.8114200000000005,44.487800000000014,13.0,4.0,0.0,6.0,2.0,68.0,1.0,0.0,0.0,1.0,86.28,73.10229667889317,3.3454419708109935,342.50533357431954
B-4033,"1,2-dino2 4-methyl benzene","InChI=1S/C7H6N2O4/c1-5-2-3-6(8(10)11)7(4-5)9(12)13/h2-4H,1H3",INYDMNPNDHRJQJ-UHFFFAOYSA-N,Cc1ccc([N+](=O)[O-])c([N+](=O)[O-])c1,-3.2604,0.0,1,G1,182.135,1.81142,44.487800000000014,13.0,4.0,0.0,6.0,2.0,68.0,1.0,0.0,0.0,1.0,86.28,73.10229667889317,3.348659071315219,374.75533357431954
B-4131,benzamide,"InChI=1S/C7H7NO/c8-7(9)6-4-2-1-3-5-6/h1-5H,(H2,8,9)",KXDAEFPNCMNJSK-UHFFFAOYSA-N,NC(=O)c1ccccc1,-0.953,0.0,1,G1,121.13899999999995,0.7855000000000001,34.95990000000001,9.0,1.0,1.0,2.0,1.0,46.0,1.0,0.0,0.0,1.0,43.09,53.29775803095004,2.981454614041131,205.415952604261
B-4136,alpha-chlorotoluene,"InChI=1S/C7H7Cl/c8-6-7-4-2-1-3-5-7/h1-5H,6H2",KCXMKQUNVWSEMD-UHFFFAOYSA-N,ClCc1ccccc1,-2.3822,0.0,1,G1,126.58599999999996,2.4254000000000007,35.99900000000001,8.0,0.0,0.0,1.0,1.0,42.0,1.0,0.0,0.0,1.0,0.0,54.09961146077524,2.8320858350070908,145.73281445033504
B-4138,thioanisole,"InChI=1S/C7H8S/c1-8-7-5-3-2-4-6-7/h2-6H,1H3",HNKJADCVZUBCPG-UHFFFAOYSA-N,CSc1ccccc1,-2.39,1.3520747843999998,2,G2,124.20799999999996,2.4085,38.22300000000001,8.0,1.0,0.0,1.0,1.0,42.0,1.0,0.0,0.0,1.0,0.0,53.91945525925882,2.8320858350070908,145.73281445033504
B-4140,formanilide,"InChI=1S/C7H7NO/c9-6-8-7-4-2-1-3-5-7/h1-6H,(H,8,9)",DYDNPESBYVVLBO-UHFFFAOYSA-N,O=CNc1ccccc1,-0.6785,0.0,1,G1,121.13899999999995,1.2549,36.12870000000001,9.0,1.0,1.0,2.0,2.0,46.0,1.0,0.0,0.0,1.0,29.1,53.50772951754537,2.719528532842932,183.367456039361
B-4141,phenylisothiocyanate,InChI=1S/C7H5NS/c9-6-8-7-4-2-1-3-5-7/h1-5H,QKFJKGMPGYROCL-UHFFFAOYSA-N,S=C=Nc1ccccc1,-3.1772,0.0,1,G1,135.19099999999997,2.4209000000000005,41.128000000000014,9.0,2.0,0.0,2.0,1.0,44.0,1.0,0.0,0.0,1.0,12.36,59.05044796695857,2.97485801127833,223.93128368278164
B-4144,2-chloroacetanilide,"InChI=1S/C8H8ClNO/c1-6(11)10-8-5-3-2-4-7(8)9/h2-5H,1H3,(H,10,11)",KNVQTRVKSOEHPU-UHFFFAOYSA-N,CC(=O)Nc1ccccc1Cl,-1.4001,0.0,1,G1,169.61099999999996,2.2984,45.75570000000002,11.0,1.0,1.0,3.0,1.0,58.0,1.0,0.0,0.0,1.0,29.1,70.17593785882364,2.8574541535636215,272.54949758389114
B-4145,3-methylacetanilide,"InChI=1S/C9H11NO/c1-7-4-3-5-9(6-7)10-8(2)11/h3-6H,1-2H3,(H,10,11)",ALMHSXDYCFOZQD-UHFFFAOYSA-N,CC(=O)Nc1cccc(C)c1,-2.0909999999999997,0.0,1,G1,149.19299999999998,1.9534199999999995,45.48270000000002,11.0,1.0,1.0,2.0,1.0,58.0,1.0,0.0,0.0,1.0,29.1,66.2376137463386,2.7909314514807626,268.0201725709103
B-4146,2-nitroacetanilide,"InChI=1S/C8H8N2O3/c1-6(11)9-7-4-2-3-5-8(7)10(12)13/h2-5H,1H3,(H,9,11)",BUNFNRVLMKHKIT-UHFFFAOYSA-N,CC(=O)Nc1ccccc1[N+](=O)[O-],-1.9093,0.0,1,G1,180.16299999999995,1.5531999999999997,47.40010000000001,13.0,3.0,1.0,5.0,2.0,68.0,1.0,0.0,0.0,1.0,72.24000000000001,74.52564735444179,3.0435273546341013,348.99730523753374
B-4147,benzylisothiocyanate,"InChI=1S/C8H7NS/c10-7-9-6-8-4-2-1-3-5-8/h1-5H,6H2",MDKCFLQDBWCQCV-UHFFFAOYSA-N,S=C=NCc1ccccc1,-3.1364,0.0,1,G1,149.218,2.2894000000000005,45.17200000000002,10.0,2.0,0.0,2.0,2.0,50.0,1.0,0.0,0.0,1.0,12.36,65.41539008135518,2.6687661861354384,236.69432088304723
B-4149,"2,6-dichlorobenzamide","InChI=1S/C7H5Cl2NO/c8-4-2-1-3-5(9)6(4)7(10)11/h1-3H,(H2,10,11)",JHSPCUHPSIUQRB-UHFFFAOYSA-N,NC(=O)c1c(Cl)cccc1Cl,-1.8427,0.0,1,G1,190.029,2.0923,44.97990000000001,11.0,1.0,1.0,4.0,1.0,58.0,1.0,0.0,0.0,1.0,43.09,73.90429048471339,3.318913173486669,278.2420897763861
B-4151,n-(ethylaminomethyl)benzamide,"InChI=1S/C10H14N2O/c1-2-11-8-12-10(13)9-6-4-3-5-7-9/h3-7,11H,2,8H2,1H3,(H,12,13)",MUDXIWKFOCILIO-UHFFFAOYSA-N,CCNCNC(=O)c1ccccc1,-0.0749,0.0,1,G1,178.235,0.9833999999999996,52.45190000000003,13.0,2.0,2.0,3.0,4.0,70.0,1.0,0.0,0.0,1.0,41.129999999999995,78.15241804434325,2.404796656306514,258.88707266800486
B-4152,phenylpropylmethylamine,"InChI=1S/C10H15N/c1-9(8-11-2)10-6-4-3-5-7-10/h3-7,9,11H,8H2,1-2H3",AUFSOOYCQYDGES-UHFFFAOYSA-N,CNCC(C)c1ccccc1,-1.0947,0.0,1,G1,149.237,2.0095,48.78370000000003,11.0,1.0,1.0,1.0,3.0,60.0,1.0,0.0,0.0,1.0,12.03,68.44103376069144,2.610675164103469,193.2875676035994
B-4167,benzylurea,"InChI=1S/C8H10N2O/c9-8(11)10-6-7-4-2-1-3-5-7/h1-5H,6H2,(H3,9,10,11)",RJNJWHFSKNJCTB-UHFFFAOYSA-N,NC(=O)NCc1ccccc1,-0.9462,0.0,1,G1,150.18099999999998,0.8548999999999998,42.86510000000001,11.0,1.0,2.0,3.0,2.0,58.0,1.0,0.0,0.0,1.0,55.120000000000005,65.21256232895469,2.453018743531937,233.1071909292143
B-4170,benzenesulfonamide,"InChI=1S/C6H7NO2S/c7-10(8,9)6-4-2-1-3-5-6/h1-5H,(H2,7,8,9)",KHBQMWCZKVMBLN-UHFFFAOYSA-N,NS(=O)(=O)c1ccccc1,-1.5630000000000002,0.0,1,G1,157.194,0.3340000000000002,37.81520000000002,10.0,2.0,1.0,4.0,1.0,54.0,1.0,0.0,0.0,1.0,60.16,59.53206970892476,3.2186466288823383,303.7795180972205
B-4171,m-methylbenzenesulfonamide,"InChI=1S/C7H9NO2S/c1-6-3-2-4-7(5-6)11(8,9)10/h2-5H,1H3,(H2,8,9,10)",NVZINPVISUVPHW-UHFFFAOYSA-N,Cc1cccc(S(N)(=O)=O)c1,-1.3409,0.0,1,G1,171.22099999999998,0.6424200000000001,42.55220000000001,11.0,2.0,1.0,4.0,1.0,60.0,1.0,0.0,0.0,1.0,60.16,65.89701182332136,3.2779105845781125,356.45825254565904
B-4174,fenthion,"InChI=1S/C10H15O3PS2/c1-8-7-9(5-6-10(8)16-4)13-14(15,11-2)12-3/h5-7H,1-4H3",PNVJTZOFSHSLTO-UHFFFAOYSA-N,COP(=S)(OC)Oc1ccc(SC)c(C)c1,-4.5695,0.0,1,G1,278.335,3.6130200000000023,71.89100000000003,16.0,5.0,0.0,6.0,5.0,90.0,1.0,0.0,0.0,1.0,27.69,105.73484539418226,2.905013649037325,401.0506573051322
B-4184,"2,4-dichlorophenoxyacetic acid","InChI=1S/C8H6Cl2O3/c9-5-1-2-7(6(10)3-5)13-4-8(11)12/h1-3H,4H2,(H,11,12)",OVSKIKFHRZPJSS-UHFFFAOYSA-N,O=C(O)COc1ccc(Cl)cc1Cl,-2.5139,0.16805,2,G3,221.039,2.4568000000000003,49.59280000000002,13.0,2.0,1.0,5.0,3.0,70.0,1.0,0.0,0.0,1.0,46.53,84.83712088380017,2.7194415184626908,325.16521978178946
B-4186,dichlofenthion,"InChI=1S/C10H13Cl2O3PS/c1-3-13-16(17,14-4-2)15-10-6-5-8(11)7-9(10)12/h5-7H,3-4H2,1-2H3",WGOWCPGHOCIHBW-UHFFFAOYSA-N,CCOP(=S)(OCC)Oc1ccc(Cl)cc1Cl,-6.1094,0.0,1,G1,315.158,4.669700000000003,74.62700000000002,17.0,4.0,0.0,7.0,6.0,96.0,1.0,0.0,0.0,1.0,27.69,116.21826782258036,2.8934015609300836,418.0120791427406
B-4187,chlorpropham,"InChI=1S/C10H12ClNO2/c1-7(2)14-10(13)12-9-5-3-4-8(11)6-9/h3-7H,1-2H3,(H,12,13)",CWJSHJJYOPWUGX-UHFFFAOYSA-N,CC(C)OC(=O)Nc1cccc(Cl)c1,-3.3804,0.0,1,G1,213.664,3.2969000000000017,56.691700000000026,14.0,2.0,1.0,4.0,2.0,76.0,1.0,0.0,0.0,1.0,38.33,88.01936731712375,2.5599256739669265,325.6529664102151
B-4188,fenuron,"InChI=1S/C9H12N2O/c1-11(2)9(12)10-8-6-4-3-5-7-8/h3-7H,1-2H3,(H,10,12)",XXOYNJXVWVNOOJ-UHFFFAOYSA-N,CN(C)C(=O)Nc1ccccc1,-1.6101,0.1108332180450528,3,G5,164.208,1.7801,49.14770000000003,12.0,1.0,1.0,3.0,1.0,64.0,1.0,0.0,0.0,1.0,32.34,71.99744741654196,2.5897829796017806,256.4908622767174
B-4192,dichlorprop,"InChI=1S/C9H8Cl2O3/c1-5(9(12)13)14-8-3-2-6(10)4-7(8)11/h2-5H,1H3,(H,12,13)",MZHCENGPTKEIGP-UHFFFAOYSA-N,CC(Oc1ccc(Cl)cc1Cl)C(=O)O,-2.8271,0.18855,2,G3,235.06599999999997,2.845300000000001,54.18780000000002,14.0,2.0,1.0,5.0,3.0,76.0,1.0,0.0,0.0,1.0,46.53,91.2020629981968,2.817664884623791,351.9103452953617
B-4195,isopropyl phenyl carbamate,"InChI=1S/C10H13NO2/c1-8(2)13-10(12)11-9-6-4-3-5-7-9/h3-8H,1-2H3,(H,11,12)",VXPLXMJHHKHSOA-UHFFFAOYSA-N,CC(C)OC(=O)Nc1ccccc1,-3.0005,0.0,1,G1,179.21900000000002,2.6435000000000013,51.68170000000003,13.0,2.0,1.0,3.0,2.0,70.0,1.0,0.0,0.0,1.0,38.33,77.71610109024209,2.45867389842926,269.5130516555259
B-4200,ronnel,"InChI=1S/C8H8Cl3O3PS/c1-12-15(16,13-2)14-8-4-6(10)5(9)3-7(8)11/h3-4H,1-2H3",JHJOOSLFWRRSGU-UHFFFAOYSA-N,COP(=S)(OC)Oc1cc(Cl)c(Cl)cc1Cl,-5.5072,0.718787225509438,3,G4,321.549,4.542900000000002,70.40300000000002,16.0,4.0,0.0,8.0,4.0,90.0,1.0,0.0,0.0,1.0,27.69,113.7916498206688,3.0637668536422646,432.78186641075825
B-4201,dmpa,"InChI=1S/C10H14Cl2NO2PS/c1-7(2)13-16(17,14-3)15-10-5-4-8(11)6-9(10)12/h4-7H,1-3H3,(H,13,17)",PJFGPJQBWSEWKX-UHFFFAOYSA-N,COP(=S)(NC(C)C)Oc1ccc(Cl)cc1Cl,-4.7982,0.0,1,G1,314.174,4.241100000000003,76.65570000000002,17.0,3.0,1.0,7.0,5.0,96.0,1.0,0.0,0.0,1.0,30.49,116.6241238943123,2.908672062473614,442.31411626963074
B-4202,crufomate,"InChI=1S/C12H19ClNO3P/c1-12(2,3)9-6-7-11(10(13)8-9)17-18(15,14-4)16-5/h6-8H,1-5H3,(H,14,15)",BOFHKBLZOYVHSI-UHFFFAOYSA-N,CNP(=O)(OC)Oc1ccc(C(C)(C)C)cc1Cl,-3.1639,0.0,1,G1,291.71500000000003,3.9902000000000033,74.45520000000003,18.0,3.0,1.0,6.0,4.0,102.0,1.0,0.0,0.0,1.0,47.56,113.22042446748596,3.03966067515308,462.8805941435619
B-4204,paraoxon,"InChI=1S/C10H14NO6P/c1-3-15-18(14,16-4-2)17-10-7-5-9(6-8-10)11(12)13/h5-8H,3-4H2,1-2H3",WYMSBXTXOHUIGT-UHFFFAOYSA-N,CCOP(=O)(OCC)Oc1ccc([N+](=O)[O-])cc1,-2.0594,0.0,1,G1,275.19700000000006,3.154700000000002,64.58290000000002,18.0,6.0,0.0,8.0,7.0,100.0,1.0,0.0,0.0,1.0,87.9,104.43439366257893,2.809298823967879,436.1860559450846
B-4205,trichloronate,"InChI=1S/C10H12Cl3O2PS/c1-3-14-16(17,4-2)15-10-6-8(12)7(11)5-9(10)13/h5-6H,3-4H2,1-2H3",ANIAQSUBRGXWLS-UHFFFAOYSA-N,CCOP(=S)(CC)Oc1cc(Cl)c(Cl)cc1Cl,-5.7524,0.0,1,G1,333.60400000000004,5.391500000000002,78.55200000000002,17.0,3.0,0.0,7.0,5.0,96.0,1.0,0.0,0.0,1.0,18.46,121.32131856182788,3.0183375639003995,453.4223051170545
B-4206,diuron,"InChI=1S/C9H10Cl2N2O/c1-13(2)9(14)12-6-3-4-7(10)8(11)5-6/h3-5H,1-2H3,(H,12,14)",XMTQQYYKAHVGBJ-UHFFFAOYSA-N,CN(C)C(=O)Nc1ccc(Cl)c(Cl)c1,-3.7443,1.227163939382309,5,G4,233.098,3.0869000000000018,59.167700000000025,14.0,1.0,1.0,5.0,1.0,76.0,1.0,0.0,0.0,1.0,32.34,92.6039798703053,2.781208374094021,352.66523279752516
B-4207,linuron,"InChI=1S/C9H10Cl2N2O2/c1-13(15-2)9(14)12-6-3-4-7(10)8(11)5-6/h3-5H,1-2H3,(H,12,14)",XKJMBINCVNINCA-UHFFFAOYSA-N,CON(C)C(=O)Nc1ccc(Cl)c(Cl)c1,-3.5213,0.0353499999999999,2,G3,249.097,3.0185000000000013,60.252700000000026,15.0,2.0,1.0,6.0,2.0,82.0,1.0,0.0,0.0,1.0,41.57,97.67156359929017,2.7296891226311293,371.1300188482176