ID,Name,InChI,InChIKey,SMILES,Solubility,SD,Occurrences,Group,MolWt,MolLogP,MolMR,HeavyAtomCount,NumHAcceptors,NumHDonors,NumHeteroatoms,NumRotatableBonds,NumValenceElectrons,NumAromaticRings,NumSaturatedRings,NumAliphaticRings,RingCount,TPSA,LabuteASA,BalabanJ,BertzCT
C-1705,"(z)-3-chloro-(e)-3-phenylpropenoic acid (cis-cl, trans-c6h5)","InChI=1S/C9H7ClO2/c10-8(6-9(11)12)7-4-2-1-3-5-7/h1-6H,(H,11,12)/b8-6-",SYLUOHMELSXJDK-VURMDHGXSA-N,O=C(O)/C=C(\Cl)c1ccccc1,-2.77,0.0,1,G1,182.60600000000005,2.3509,47.907800000000016,12.0,1.0,1.0,3.0,2.0,62.0,1.0,0.0,0.0,1.0,37.3,75.09564850962398,2.925509977656685,303.5643909481188
C-1706,n-hydroxymethyl-3-methoxybenzamide,"InChI=1S/C9H11NO3/c1-13-8-4-2-3-7(5-8)9(12)10-6-11/h2-5,11H,6H2,1H3,(H,10,12)",OVYQBYCEGNAQGH-UHFFFAOYSA-N,COc1cccc(C(=O)NCO)c1,-1.29,0.0,1,G1,181.19099999999997,0.3747999999999998,47.54600000000002,13.0,3.0,2.0,4.0,3.0,70.0,1.0,0.0,0.0,1.0,58.56,76.1453927280415,2.8175715448391285,298.6662177486325
C-1710,4-hexylbenzoic acid,"InChI=1S/C13H18O2/c1-2-3-4-5-6-11-7-9-12(10-8-11)13(14)15/h7-10H,2-6H2,1H3,(H,14,15)",CPEPWESLFZVUEP-UHFFFAOYSA-N,CCCCCCc1ccc(C(=O)O)cc1,-3.65,0.0,1,G1,206.285,3.507600000000002,61.24730000000004,15.0,1.0,1.0,2.0,6.0,82.0,1.0,0.0,0.0,1.0,37.3,90.94175377251302,2.393048245233313,300.81692104857575
C-1713,4-bromophenyl  isothiocyanate;  4-isothiocyanatobromobenzene,InChI=1S/C7H4BrNS/c8-6-1-3-7(4-2-6)9-5-10/h1-4H,XQACWEBGSZBLRG-UHFFFAOYSA-N,S=C=Nc1ccc(Br)cc1,-4.27,0.0,1,G1,214.087,3.1834000000000007,48.82800000000001,10.0,2.0,0.0,3.0,1.0,50.0,1.0,0.0,0.0,1.0,12.36,72.91799557259993,2.9960277321018163,261.43952526087224
C-1718,4-acetylphenyl  isothiocyanate;  1-acetyl-4-isothiocyanatobenzene,"InChI=1S/C9H7NOS/c1-7(11)8-2-4-9(5-3-8)10-6-12/h2-5H,1H3",KAKXOESNHIUYJT-UHFFFAOYSA-N,CC(=O)c1ccc(N=C=S)cc1,-4.02,0.0,1,G1,177.22799999999995,2.623500000000001,51.13250000000002,12.0,3.0,0.0,3.0,2.0,60.0,1.0,0.0,0.0,1.0,29.43,75.94185429579555,2.999189730319975,315.0510974249072
C-1721,2-mercaptocinnamic  acid;  2-mercapto-3-phenylpropenoic acid,"InChI=1S/C9H8O2S/c10-9(11)8(12)6-7-4-2-1-3-5-7/h1-6,12H,(H,10,11)/b8-6-",NAEHAPZYAHRUTE-VURMDHGXSA-N,O=C(O)/C(S)=C/c1ccccc1,-2.96,0.0,1,G1,180.228,2.0419,51.04080000000002,12.0,2.0,2.0,3.0,2.0,62.0,1.0,0.0,0.0,1.0,37.3,75.94744894614404,2.88538509236744,303.5643909481188
C-1722,2-mercapto-3-phenylpropionic  acid;  2-mercapto-3-phenylpropanoic acid,"InChI=1S/C9H10O2S/c10-9(11)8(12)6-7-4-2-1-3-5-7/h1-5,8,12H,6H2,(H,10,11)",HGIOOMCLOWLFTJ-UHFFFAOYSA-N,O=C(O)C(S)Cc1ccccc1,-1.56,0.0,1,G1,182.24400000000003,1.6121,50.555800000000026,12.0,2.0,2.0,3.0,3.0,64.0,1.0,0.0,0.0,1.0,37.3,76.63705197832829,2.5846040823975205,258.4908622767174
C-1727,4-(4-chlorophenoxy)butyric acid;  4-(4-chlorophenoxy)butanoic acid,"InChI=1S/C10H11ClO3/c11-8-3-5-9(6-4-8)14-7-1-2-10(12)13/h3-6H,1-2,7H2,(H,12,13)",SIYAHZSHQIPQLY-UHFFFAOYSA-N,O=C(O)CCCOc1ccc(Cl)cc1,-3.29,0.0,1,G1,214.648,2.583600000000001,53.81680000000003,14.0,2.0,1.0,4.0,5.0,76.0,1.0,0.0,0.0,1.0,46.53,87.26373888571173,2.24592650449462,294.7403499173812
C-1731,4-acetylphenyl acetate;  acetic acid 4-acetylphenyl ester;  4-acetoxyacetophenone,"InChI=1S/C10H10O3/c1-7(11)9-3-5-10(6-4-9)13-8(2)12/h3-6H,1-2H3",SMIOEQSLJNNKQF-UHFFFAOYSA-N,CC(=O)Oc1ccc(C(C)=O)cc1,-1.52,0.0,1,G1,178.18699999999998,1.8145,47.755500000000026,13.0,3.0,0.0,3.0,2.0,68.0,1.0,0.0,0.0,1.0,43.370000000000005,76.3277610066778,2.809454194164694,324.5280242886601
C-1734,4-acetoxybenzamide;  4-carbamoylphenyl  acetate,"InChI=1S/C9H9NO3/c1-6(11)13-8-4-2-7(3-5-8)9(10)12/h2-5H,1H3,(H2,10,12)",BFASOGCHMDYMBM-UHFFFAOYSA-N,CC(=O)Oc1ccc(C(N)=O)cc1,-1.64,0.0,1,G1,179.17499999999998,0.7108000000000001,46.268900000000016,13.0,3.0,1.0,4.0,2.0,68.0,1.0,0.0,0.0,1.0,69.39,75.30270958929391,2.809454194164694,329.21798022455295
C-1736,3-nitrophenyl  isothiocyanate;  3-isothiocyanatonitrobenzene,InChI=1S/C7H4N2O2S/c10-9(11)7-3-1-2-6(4-7)8-5-12/h1-4H,OEZXLKSZOAWNJU-UHFFFAOYSA-N,O=[N+]([O-])c1cccc(N=C=S)c1,-3.55,0.0,1,G1,180.18799999999996,2.3291000000000004,47.78240000000002,12.0,4.0,0.0,5.0,2.0,60.0,1.0,0.0,0.0,1.0,55.5,73.70342368945838,3.113793063513397,340.92893798348473
C-1743,"1,3-diisothiocyanatobenzene",InChI=1S/C8H4N2S2/c11-5-9-7-2-1-3-8(4-7)10-6-12/h1-4H,BOLANQNHTGVOMY-UHFFFAOYSA-N,S=C=Nc1cccc(N=C=S)c1,-4.7,0.0,1,G1,192.268,3.1552000000000007,55.814000000000014,12.0,4.0,0.0,4.0,2.0,58.0,1.0,0.0,0.0,1.0,24.72,80.66949281442018,3.1057803517784937,341.14917967727655
C-1746,2-[(3-hydroxyphenyl)hydrazono]malononitrile,"InChI=1S/C9H6N4O/c10-5-8(6-11)13-12-7-2-1-3-9(14)4-7/h1-4,12,14H",XPHHWVZARKXKST-UHFFFAOYSA-N,N#CC(C#N)=NNc1cccc(O)c1,-2.95,0.0,1,G1,186.174,1.2072599999999998,50.39050000000001,14.0,5.0,2.0,5.0,2.0,68.0,1.0,0.0,0.0,1.0,92.2,80.52094326752338,2.7727830600041523,422.8605557594953
C-1748,fenethcarb,"InChI=1S/C12H17NO2/c1-4-9-6-10(5-2)8-11(7-9)15-12(14)13-3/h6-8H,4-5H2,1-3H3,(H,13,14)",HUNDISMVCBSIKO-UHFFFAOYSA-N,CCc1cc(CC)cc(OC(=O)NC)c1,-3.32,0.0,1,G1,207.27299999999997,2.5296000000000003,60.28170000000003,15.0,2.0,1.0,3.0,3.0,82.0,1.0,0.0,0.0,1.0,38.33,90.44598531903527,2.909983962315807,325.2253978271734
C-1751,ethyl  vanillate; 4-hydroxy-3-methoxybenzoic acid ethyl ester; vanillic acid ethyl ester,"InChI=1S/C10H12O4/c1-3-14-10(12)7-4-5-8(11)9(6-7)13-2/h4-6,11H,3H2,1-2H3",MWAYRGBWOVHDDZ-UHFFFAOYSA-N,CCOC(=O)c1ccc(O)c(OC)c1,-1.72,0.0,1,G1,196.202,1.5774999999999997,50.61530000000003,14.0,4.0,1.0,4.0,3.0,76.0,1.0,0.0,0.0,1.0,55.760000000000005,82.07401788833694,2.9407949708085868,332.8939251082797
C-1752,1-acetylamino-3-isothiocyanatobenzene,"InChI=1S/C9H8N2OS/c1-7(12)11-9-4-2-3-8(5-9)10-6-13/h2-5H,1H3,(H,11,12)",HLWVGQKSSIHUAX-UHFFFAOYSA-N,CC(=O)Nc1cccc(N=C=S)c1,-3.53,0.0,1,G1,192.243,2.3793000000000006,55.43170000000001,13.0,3.0,1.0,4.0,2.0,66.0,1.0,0.0,0.0,1.0,41.46,81.49171647940358,2.907432168918415,369.6323805179054
C-1756,4-(methoxycarbonyl)acetanilide;  4-acetylaminobenzoic acid methyl ester,"InChI=1S/C10H11NO3/c1-7(12)11-9-5-3-8(4-6-9)10(13)14-2/h3-6H,1-2H3,(H,11,12)",QKWTXJSLAZKYGV-UHFFFAOYSA-N,COC(=O)c1ccc(NC(C)=O)cc1,-1.9,0.0,1,G1,193.202,1.4315999999999998,52.08520000000002,14.0,3.0,1.0,4.0,2.0,74.0,1.0,0.0,0.0,1.0,55.4,81.87762319028587,2.779704303124595,342.88967288700354
C-1763,2-[(4-chlorophenyl)hydrazono]malononitrile,"InChI=1S/C9H5ClN4/c10-7-1-3-8(4-2-7)13-14-9(5-11)6-12/h1-4,13H",LLQAOIITXFNWED-UHFFFAOYSA-N,N#CC(C#N)=NNc1ccc(Cl)cc1,-4.36,0.0,1,G1,204.62,2.15506,53.73570000000001,14.0,4.0,1.0,5.0,2.0,68.0,1.0,0.0,0.0,1.0,71.97,86.02997574220903,2.726576473281853,405.6105557594952
C-1768,4-hydroxyisophthalic  acid,"InChI=1S/C8H6O5/c9-6-2-1-4(7(10)11)3-5(6)8(12)13/h1-3,9H,(H,10,11)(H,12,13)",BCEQKAQCUWUNML-UHFFFAOYSA-N,O=C(O)c1ccc(O)c(C(=O)O)c1,-1.78,0.50165,2,G2,182.13099999999997,0.7886,42.025400000000005,13.0,3.0,3.0,5.0,2.0,68.0,1.0,0.0,0.0,1.0,94.83,72.86703280496575,3.267052212361691,368.797177554286
C-1769,methyl 4-acetoxybenzoate;  4-acetoxybenzoic acid methyl ester,"InChI=1S/C10H10O4/c1-7(11)14-9-5-3-8(4-6-9)10(12)13-2/h3-6H,1-2H3",PGJQPLVEUVHSFQ-UHFFFAOYSA-N,COC(=O)c1ccc(OC(C)=O)cc1,-2.5,0.0,1,G1,194.186,1.3985,49.09050000000003,14.0,4.0,0.0,4.0,2.0,74.0,1.0,0.0,0.0,1.0,52.6,81.4413062361847,2.779704303124595,339.644560389167
C-1777,4-ureidophenyl  acetate;  acetic acid 4-ureidophenyl ester,"InChI=1S/C9H10N2O3/c1-6(12)14-8-4-2-7(3-5-8)11-9(10)13/h2-5H,1H3,(H3,10,11,13)",RHNWGZJHWWJART-UHFFFAOYSA-N,CC(=O)Oc1ccc(NC(N)=O)cc1,-2.49,0.0,1,G1,194.19,1.1025,50.95710000000002,14.0,3.0,2.0,5.0,2.0,74.0,1.0,0.0,0.0,1.0,81.41999999999999,80.85257177290197,2.679983362198753,310.57962882289627
C-1778,"2-hydroxyisophthalic acid; 2-hydroxy-1,3-benzenedicarboxylic acid","InChI=1S/C8H6O5/c9-6-4(7(10)11)2-1-3-5(6)8(12)13/h1-3,9H,(H,10,11)(H,12,13)",WVDGHGISNBRCAO-UHFFFAOYSA-N,O=C(O)c1cccc(C(=O)O)c1O,-2.11,0.0,1,G1,182.13099999999997,0.7886,42.02540000000001,13.0,3.0,3.0,5.0,2.0,68.0,1.0,0.0,0.0,1.0,94.83,72.86703280496575,3.3454419708109926,336.547177554286
C-1782,3-iodophenyl  isothiocyanate;  3-isothiocyanatoiodobenzene,InChI=1S/C7H4INS/c8-6-2-1-3-7(4-6)9-5-10/h1-4H,LKCSXVAACHUTGC-UHFFFAOYSA-N,S=C=Nc1cccc(I)c1,-4.68,0.0,1,G1,261.087,3.0255,53.845000000000006,10.0,2.0,0.0,3.0,1.0,50.0,1.0,0.0,0.0,1.0,12.36,78.31228608800221,3.061972168711611,278.6895252608723
C-1790,3-hydroxyphthalic acid,"InChI=1S/C8H6O5/c9-5-3-1-2-4(7(10)11)6(5)8(12)13/h1-3,9H,(H,10,11)(H,12,13)",MNUOZFHYBCRUOD-UHFFFAOYSA-N,O=C(O)c1cccc(O)c1C(=O)O,-2.11,0.0,1,G1,182.13099999999997,0.7886,42.025400000000005,13.0,3.0,3.0,5.0,2.0,68.0,1.0,0.0,0.0,1.0,94.83,72.86703280496575,3.427344204506424,368.797177554286
C-1791,4-ethoxycarbonylphenyl isothiocyanate;  4-isothiocyanatobenzoic acid ethyl ester,"InChI=1S/C10H9NO2S/c1-2-13-10(12)8-3-5-9(6-4-8)11-7-14/h3-6H,2H2,1H3",MLOJHUCMCKBDLV-UHFFFAOYSA-N,CCOC(=O)c1ccc(N=C=S)cc1,-4.05,0.0,1,G1,207.254,2.597600000000001,57.08450000000002,14.0,4.0,0.0,4.0,3.0,72.0,1.0,0.0,0.0,1.0,38.66,87.42034163969903,2.821459128052013,366.2133176285555
C-1802,acetylmandelic acid (rac.);  alpha-acetoxyphenylacetic (rac.),"InChI=1S/C10H10O4/c1-7(11)14-9(10(12)13)8-5-3-2-4-6-8/h2-6,9H,1H3,(H,12,13)",OBCUSTCTKLTMBX-UHFFFAOYSA-N,CC(=O)OC(C(=O)O)c1ccccc1,-1.23,0.0,1,G1,194.186,1.3754000000000002,48.58480000000002,14.0,3.0,1.0,4.0,3.0,74.0,1.0,0.0,0.0,1.0,63.6,81.12199475887383,2.8895915446477933,331.23505186595935
C-1803,"2,5-dichlorophenoxyacetic acid","InChI=1S/C8H6Cl2O3/c9-5-1-2-6(10)7(3-5)13-4-8(11)12/h1-3H,4H2,(H,11,12)",YVPLLFUCNGVUAY-UHFFFAOYSA-N,O=C(O)COc1cc(Cl)ccc1Cl,-2.62,0.0,1,G1,221.039,2.4568000000000003,49.59280000000002,13.0,2.0,1.0,5.0,3.0,70.0,1.0,0.0,0.0,1.0,46.53,84.83712088380018,2.7509229858195923,325.1652197817895
C-1807,"2,6-dichlorophenoxyacetic  acid","InChI=1S/C8H6Cl2O3/c9-5-2-1-3-6(10)8(5)13-4-7(11)12/h1-3H,4H2,(H,11,12)",KHZWIIFEFQBNKL-UHFFFAOYSA-N,O=C(O)COc1c(Cl)cccc1Cl,-2.15,0.0,1,G1,221.039,2.4568000000000003,49.59280000000002,13.0,2.0,1.0,5.0,3.0,70.0,1.0,0.0,0.0,1.0,46.53,84.83712088380017,2.8069205617428654,304.91521978178946
C-1816,4-acetamidophenyl  propionate; acetaminophen propionate; 4-propanoyloxyacetanilide,"InChI=1S/C11H13NO3/c1-3-11(14)15-10-6-4-9(5-7-10)12-8(2)13/h4-7H,3H2,1-2H3,(H,12,13)",HFVPPHLKEKRGHI-UHFFFAOYSA-N,CCC(=O)Oc1ccc(NC(C)=O)cc1,-2.72,0.0,1,G1,207.229,1.9603999999999997,56.67170000000003,15.0,3.0,1.0,4.0,3.0,80.0,1.0,0.0,0.0,1.0,55.4,88.24256530468247,2.6354041401795083,356.60071282200613
C-1817,4-toluenesulfonic acid hydrazide,"InChI=1S/C7H10N2O2S/c1-6-2-4-7(5-3-6)12(10,11)9-8/h2-5,9H,8H2,1H3",ICGLPKIVTVWCFT-UHFFFAOYSA-N,Cc1ccc(S(=O)(=O)NN)cc1,-1.48,0.0,1,G1,186.236,0.1470200000000001,45.68790000000001,12.0,3.0,2.0,5.0,2.0,66.0,1.0,0.0,0.0,1.0,72.19,71.41701002716438,3.1423171432689863,355.49769522287335
C-1827,"chlormethiuron;  3-(4-chloro-2-methylphenyl)-1,3-dimethylthiourea","InChI=1S/C10H13ClN2S/c1-7-6-8(11)4-5-9(7)13(3)10(14)12-2/h4-6H,1-3H3,(H,12,14)",WELPARMRIRIBMB-UHFFFAOYSA-N,CNC(=S)N(C)c1ccc(Cl)cc1C,-3.66,0.0,1,G1,228.748,2.5889200000000008,66.24970000000003,14.0,1.0,1.0,4.0,1.0,76.0,1.0,0.0,0.0,1.0,15.27,94.86291390498135,3.0108721142868715,351.9752768616324
C-1828,4-diazobenzenesulfonic  acid,"InChI=1S/C6H4N2O3S/c7-8-5-1-3-6(4-2-5)12(9,10)11/h1-4H/p+1",UEUIKXVPXLWUDU-UHFFFAOYSA-O,N#[N+]c1ccc(S(=O)(=O)O)cc1,-2.42,0.0,1,G1,185.184,1.41788,41.00060000000001,12.0,3.0,1.0,6.0,1.0,62.0,1.0,0.0,0.0,1.0,82.52,69.02029013413807,3.200324346367691,415.10157437016
C-1831,4-(methoxycarbonyloxy)acetanilide,"InChI=1S/C10H11NO4/c1-7(12)11-8-3-5-9(6-4-8)15-10(13)14-2/h3-6H,1-2H3,(H,11,12)",NPTMYBDPDBTCPB-UHFFFAOYSA-N,COC(=O)Oc1ccc(NC(C)=O)cc1,-1.69,0.0,1,G1,209.201,1.7901999999999998,53.77870000000002,15.0,4.0,1.0,5.0,2.0,80.0,1.0,0.0,0.0,1.0,64.63,86.99116841979274,2.6354041401795083,358.19006718030624
C-1832,4-aminotoluene-2-sulfonic acid,"InChI=1S/C7H9NO3S/c1-5-2-3-6(8)4-7(5)12(9,10)11/h2-4H,8H2,1H3,(H,9,10,11)",BRKFTWHPLMMNHF-UHFFFAOYSA-N,Cc1ccc(N)cc1S(=O)(=O)O,-1.62,0.1985398679000001,2,G3,187.22,0.82392,45.40600000000001,12.0,3.0,2.0,5.0,1.0,66.0,1.0,0.0,0.0,1.0,80.39,70.7648719409469,3.434493908900649,397.1125573446092
C-1833,propyl  4-acetylaminobenzoate;  4-acetylaminobenzoic acid propyl ester,"InChI=1S/C12H15NO3/c1-3-8-16-12(15)10-4-6-11(7-5-10)13-9(2)14/h4-7H,3,8H2,1-2H3,(H,13,14)",TZBHZUCUDXQCSI-UHFFFAOYSA-N,CCCOC(=O)c1ccc(NC(C)=O)cc1,-3.29,0.0,1,G1,221.25599999999997,2.2118,61.31920000000004,16.0,3.0,1.0,4.0,4.0,86.0,1.0,0.0,0.0,1.0,55.4,94.60750741907908,2.6308846498835994,370.35519215780533
C-1841,l-dopa methyl ester,"InChI=1S/C10H13NO4/c1-15-10(14)7(11)4-6-2-3-8(12)9(13)5-6/h2-3,5,7,12-13H,4,11H2,1H3",XBBDACCLCFWBSI-UHFFFAOYSA-N,COC(=O)C(N)Cc1ccc(O)c(O)c1,0.48,0.0,1,G1,211.217,0.1405999999999997,53.46700000000003,15.0,5.0,3.0,5.0,3.0,82.0,1.0,0.0,0.0,1.0,92.78,87.0945971080388,2.726426383204553,364.4400629123248
C-1851,acetaminophen  butyrate,"InChI=1S/C12H15NO3/c1-3-4-12(15)16-11-7-5-10(6-8-11)13-9(2)14/h5-8H,3-4H2,1-2H3,(H,13,14)",AHSNWUAHWPTIFM-UHFFFAOYSA-N,CCCC(=O)Oc1ccc(NC(C)=O)cc1,-2.83,0.0,1,G1,221.25599999999997,2.3505000000000003,61.288700000000034,16.0,3.0,1.0,4.0,4.0,86.0,1.0,0.0,0.0,1.0,55.4,94.60750741907908,2.571316213442423,370.35519215780533
C-1857,4-[(ethoxycarbonyloxy)methoxy]acetanilide,"InChI=1S/C12H15NO5/c1-3-16-12(15)18-8-17-11-6-4-10(5-7-11)13-9(2)14/h4-7H,3,8H2,1-2H3,(H,13,14)",BPRBJIUXTLFJML-UHFFFAOYSA-N,CCOC(=O)OCOc1ccc(NC(C)=O)cc1,-2.43,0.0,1,G1,253.254,2.1544,64.34770000000003,18.0,5.0,1.0,6.0,5.0,98.0,1.0,0.0,0.0,1.0,73.86000000000001,104.83459787809284,2.347468256747924,401.4337263375565
C-1862,2-(trimethylacetoxy)benzoic  acid,"InChI=1S/C12H14O4/c1-12(2,3)11(15)16-9-7-5-4-6-8(9)10(13)14/h4-7H,1-3H3,(H,13,14)",OPARZKXAKOJBQN-UHFFFAOYSA-N,CC(C)(C)C(=O)Oc1ccccc1C(=O)O,-3.01,0.0,1,G1,222.24,2.3363,58.49130000000003,16.0,3.0,1.0,4.0,2.0,86.0,1.0,0.0,0.0,1.0,63.6,93.85187898766706,2.980838295892187,415.2720914064313
C-1867,butyl  4-acetylaminobenzoate;  4-acetylaminobenzoic acid butyl ester,"InChI=1S/C13H17NO3/c1-3-4-9-17-13(16)11-5-7-12(8-6-11)14-10(2)15/h5-8H,3-4,9H2,1-2H3,(H,14,15)",TYCZFKFSOQONBM-UHFFFAOYSA-N,CCCCOC(=O)c1ccc(NC(C)=O)cc1,-3.46,0.0,1,G1,235.283,2.6019000000000005,65.93620000000003,17.0,3.0,1.0,4.0,5.0,92.0,1.0,0.0,0.0,1.0,55.4,100.97244953347568,2.543356964281142,384.1559777215907
C-1873,2-[(4-acetylphenyl)hydrazono]malononitrile,"InChI=1S/C11H8N4O/c1-8(16)9-2-4-10(5-3-9)14-15-11(6-12)7-13/h2-5,14H,1H3",CALHPSDTGPNZIJ-UHFFFAOYSA-N,CC(=O)c1ccc(NN=C(C#N)C#N)cc1,-2.71,0.0,1,G1,212.212,1.70426,58.73020000000002,16.0,5.0,1.0,5.0,3.0,78.0,1.0,0.0,0.0,1.0,89.03999999999999,92.61811584416436,2.7839434957498614,486.2714796265021
C-1879,4-acetoxybenzaldehydesemicarbazone,"InChI=1S/C10H11N3O3/c1-7(14)16-9-4-2-8(3-5-9)6-12-13-10(11)15/h2-6H,1H3,(H3,11,13,15)/b12-6+",YIRVJBITGXXLMK-WUXMJOGZSA-N,CC(=O)Oc1ccc(/C=N/NC(N)=O)cc1,-2.84,0.0,1,G1,221.216,0.6141000000000001,58.06410000000002,16.0,4.0,2.0,6.0,3.0,84.0,1.0,0.0,0.0,1.0,93.78,92.08297239339366,2.6043534448757444,411.82236046621153
C-1894,4-(propoxycarbonyloxy)acetanilide,"InChI=1S/C12H15NO4/c1-3-8-16-12(15)17-11-6-4-10(5-7-11)13-9(2)14/h4-7H,3,8H2,1-2H3,(H,13,14)",AHYLFQRWOBJBTE-UHFFFAOYSA-N,CCCOC(=O)Oc1ccc(NC(C)=O)cc1,-2.57,0.0,1,G1,237.255,2.570400000000001,63.01270000000003,17.0,4.0,1.0,5.0,4.0,92.0,1.0,0.0,0.0,1.0,64.63,99.72105264858595,2.4992852015277567,385.9970315509345
C-1900,"3,4,5-trichlorophenoxyacetic acid","InChI=1S/C8H5Cl3O3/c9-5-1-4(14-3-7(12)13)2-6(10)8(5)11/h1-2H,3H2,(H,12,13)",DAIMSMGGQIIQPI-UHFFFAOYSA-N,O=C(O)COc1cc(Cl)c(Cl)c(Cl)c1,-2.94,0.0,1,G1,255.484,3.1102000000000007,54.602800000000016,14.0,2.0,1.0,6.0,3.0,76.0,1.0,0.0,0.0,1.0,46.53,95.14038711068184,2.841930502472325,341.8442913293867
C-1901,acetaminophen hexanoate,"InChI=1S/C14H19NO3/c1-3-4-5-6-14(17)18-13-9-7-12(8-10-13)15-11(2)16/h7-10H,3-6H2,1-2H3,(H,15,16)",GTOMOLIKAAXJAC-UHFFFAOYSA-N,CCCCCC(=O)Oc1ccc(NC(C)=O)cc1,-4.14,0.0,1,G1,249.31,3.130700000000001,70.52270000000003,18.0,3.0,1.0,4.0,6.0,98.0,1.0,0.0,0.0,1.0,55.4,107.3373916478723,2.426147487249208,398.0050604096773
C-1903,2-(diethylacetoxy)benzoic  acid,"InChI=1S/C13H16O4/c1-3-9(4-2)13(16)17-11-8-6-5-7-10(11)12(14)15/h5-9H,3-4H2,1-2H3,(H,14,15)",JOOGNBMRVNYBET-UHFFFAOYSA-N,CCC(CC)C(=O)Oc1ccccc1C(=O)O,-1.84,0.0,1,G1,236.267,2.726400000000001,63.10830000000003,17.0,3.0,1.0,4.0,5.0,92.0,1.0,0.0,0.0,1.0,63.6,100.21682110206366,2.878622705893016,407.63541876010703
C-1904,"2,3,5-trichlorophenoxyacetic  acid","InChI=1S/C8H5Cl3O3/c9-4-1-5(10)8(11)6(2-4)14-3-7(12)13/h1-2H,3H2,(H,12,13)",GFMRARCDRIKDAV-UHFFFAOYSA-N,O=C(O)COc1cc(Cl)cc(Cl)c1Cl,-3.0,0.0,1,G1,255.484,3.1102000000000007,54.602800000000016,14.0,2.0,1.0,6.0,3.0,76.0,1.0,0.0,0.0,1.0,46.53,95.14038711068184,2.9033904846830163,365.0942913293867
C-1910,2-[(2-nitrophenyl)hydrazono]malononitrile,"InChI=1S/C9H5N5O2/c10-5-7(6-11)12-13-8-3-1-2-4-9(8)14(15)16/h1-4,13H",NKWOBFAONPVDDE-UHFFFAOYSA-N,N#CC(C#N)=NNc1ccccc1[N+](=O)[O-],-3.93,0.0,1,G1,215.17200000000005,1.40986,55.38010000000001,16.0,6.0,1.0,7.0,3.0,78.0,1.0,0.0,0.0,1.0,115.11,90.37968523782718,2.998680836519677,507.4362619440947
C-1922,4-(butoxycarboxy)acetanilide,"InChI=1S/C13H17NO4/c1-3-4-9-17-13(16)18-12-7-5-11(6-8-12)14-10(2)15/h5-8H,3-4,9H2,1-2H3,(H,14,15)",HMDOTBHCMSTMJG-UHFFFAOYSA-N,CCCCOC(=O)Oc1ccc(NC(C)=O)cc1,-3.37,0.0,1,G1,251.282,2.9605000000000015,67.62970000000003,18.0,4.0,1.0,5.0,5.0,98.0,1.0,0.0,0.0,1.0,64.63,106.08599476298258,2.426147487249208,399.957200484813
C-1925,"2-benzoyloxy-n,n-(diethyl)propionamide;  2-benzoyloxy-n,n-(diethyl)propanoic acid amide","InChI=1S/C14H19NO3/c1-4-15(5-2)13(16)11(3)18-14(17)12-9-7-6-8-10-12/h6-11H,4-5H2,1-3H3",BZZFPIRKNVWTKJ-UHFFFAOYSA-N,CCN(CC)C(=O)C(C)OC(=O)c1ccccc1,-2.28,0.0899999999999998,2,G3,249.30999999999997,2.1003,69.24750000000004,18.0,3.0,0.0,4.0,5.0,98.0,1.0,0.0,0.0,1.0,46.61,107.54736313446764,2.6224657007216408,398.75994791184064
C-1931,4-[(2-methoxy)ethoxycarbonyloxy]acetanilide,"InChI=1S/C12H15NO5/c1-9(14)13-10-3-5-11(6-4-10)18-12(15)17-8-7-16-2/h3-6H,7-8H2,1-2H3,(H,13,14)",KYTDPGSAMIDEED-UHFFFAOYSA-N,COCCOC(=O)Oc1ccc(NC(C)=O)cc1,-1.69,0.0,1,G1,253.254,1.8068,64.59770000000003,18.0,5.0,1.0,6.0,5.0,98.0,1.0,0.0,0.0,1.0,73.86000000000001,104.83459787809284,2.426147487249208,401.4337263375565
C-1948,2'-diethylaminoethyl  4-acetamidobenzoate,"InChI=1S/C15H22N2O3/c1-4-17(5-2)10-11-20-15(19)13-6-8-14(9-7-13)16-12(3)18/h6-9H,4-5,10-11H2,1-3H3,(H,16,18)",YMABTXMPJQRLCQ-UHFFFAOYSA-N,CCN(CC)CCOC(=O)c1ccc(NC(C)=O)cc1,-1.65,0.0,1,G1,278.352,2.1436,78.81620000000004,20.0,4.0,1.0,5.0,7.0,110.0,1.0,0.0,0.0,1.0,58.64,119.4621674324723,2.4506861321735043,438.93677733377945
C-1949,2-{[4-(2-chloroacetyl)phenyl]hydrazono}malononitrile,"InChI=1S/C11H7ClN4O/c12-5-11(17)8-1-3-9(4-2-8)15-16-10(6-13)7-14/h1-4,15H,5H2",ARUUDRZOVHJRDG-UHFFFAOYSA-N,N#CC(C#N)=NNc1ccc(C(=O)CCl)cc1,-3.19,0.0,1,G1,246.657,1.92316,63.77620000000001,17.0,5.0,1.0,6.0,4.0,84.0,1.0,0.0,0.0,1.0,89.03999999999999,102.92138207104604,2.7713439900718044,505.8877920812641
C-1950,l-dopa pentyl ester,"InChI=1S/C14H21NO4/c1-2-3-4-7-19-14(18)11(15)8-10-5-6-12(16)13(17)9-10/h5-6,9,11,16-17H,2-4,7-8,15H2,1H3",WGYXRPGKLMQCLW-UHFFFAOYSA-N,CCCCCOC(=O)C(N)Cc1ccc(O)c(O)c1,-0.99,0.0,1,G1,267.325,1.7009999999999998,71.93500000000003,19.0,5.0,3.0,5.0,7.0,106.0,1.0,0.0,0.0,1.0,92.78,112.55436556562525,2.4223761342832155,419.9070331391436
C-1951,"benzyl  2,2-diethylmalonurate","InChI=1S/C15H20N2O4/c1-3-15(4-2,12(18)17-14(16)20)13(19)21-10-11-8-6-5-7-9-11/h5-9H,3-4,10H2,1-2H3,(H3,16,17,18,20)",WVPRQIREPMNEIX-UHFFFAOYSA-N,CCC(CC)(C(=O)NC(N)=O)C(=O)OCc1ccccc1,-3.66,0.0,1,G1,292.3349999999999,1.7310999999999994,76.97910000000003,21.0,4.0,2.0,6.0,6.0,114.0,1.0,0.0,0.0,1.0,98.49,123.2037465593254,2.8146675357108357,509.6647193733829
C-1952,acetaminophen  octanoate;  4-(octanoyloxy)acetanilide,"InChI=1S/C16H23NO3/c1-3-4-5-6-7-8-16(19)20-15-11-9-14(10-12-15)17-13(2)18/h9-12H,3-8H2,1-2H3,(H,17,18)",FMSIHPQFJSZQTA-UHFFFAOYSA-N,CCCCCCCC(=O)Oc1ccc(NC(C)=O)cc1,-4.44,0.0,1,G1,277.364,3.9109000000000025,79.75670000000004,20.0,3.0,1.0,4.0,8.0,110.0,1.0,0.0,0.0,1.0,55.4,120.06727587666552,2.2898528792415944,425.8530546667464