ID,Name,InChI,InChIKey,SMILES,Solubility,SD,Occurrences,Group,MolWt,MolLogP,MolMR,HeavyAtomCount,NumHAcceptors,NumHDonors,NumHeteroatoms,NumRotatableBonds,NumValenceElectrons,NumAromaticRings,NumSaturatedRings,NumAliphaticRings,RingCount,TPSA,LabuteASA,BalabanJ,BertzCT
A-3788,5-[(2-hydroxyethyl)amino]-2-methylphenol,"InChI=1S/C9H13NO2/c1-7-2-3-8(6-9(7)12)10-4-5-11/h2-3,6,10-12H,4-5H2,1H3",YGRFRBUGAPOJDU-UHFFFAOYSA-N,Cc1ccc(NCCO)cc1O,-0.6550553282,0.0,1,G1,167.20800000000003,1.1048199999999997,48.41930000000003,12.0,3.0,3.0,3.0,3.0,66.0,1.0,0.0,0.0,1.0,52.489999999999995,71.66455915068684,2.686708199076686,260.70548992551977
A-3805,2-(2-phenoxyethoxy)ethan-1-ol,"InChI=1S/C10H14O3/c11-6-7-12-8-9-13-10-4-2-1-3-5-10/h1-5,11H,6-9H2",ZUAURMBNZUCEAF-UHFFFAOYSA-N,OCCOCCOc1ccccc1,-0.7165256146,0.0,1,G1,182.219,1.0743000000000005,49.841800000000035,13.0,3.0,1.0,3.0,6.0,72.0,1.0,0.0,0.0,1.0,38.69,77.91249578829317,2.0653801840299586,210.66965993048055
A-3808,aniline,"InChI=1S/C6H7N/c7-6-4-2-1-3-5-6/h1-5H,7H2",PAYRUJLWNCNPSJ-UHFFFAOYSA-N,Nc1ccccc1,-0.4250168953,0.0061172282499999,2,G3,93.129,1.2688,30.8544,7.0,1.0,1.0,1.0,0.0,36.0,1.0,0.0,0.0,1.0,26.02,42.77129381650968,3.0214653097240864,134.10736969541455
A-3811,sodium hydrogen-5-sulphoisophthalate,"InChI=1S/C8H6O7S.Na/c9-7(10)4-1-5(8(11)12)3-6(2-4)16(13,14)15;/h1-3H,(H,9,10)(H,11,12)(H,13,14,15);/q;+1/p-1",YXTFRJVQOWZDPP-UHFFFAOYSA-M,O=C(O)c1cc(C(=O)O)cc(S(=O)(=O)[O-])c1.[Na+],0.1093959475,0.0,1,G1,268.178,-3.008899999999999,48.323800000000006,17.0,5.0,2.0,9.0,3.0,86.0,1.0,0.0,0.0,1.0,131.8,118.11483468552233,2.559999044800369e-06,530.9864682954485
A-3842,4-fluoroaniline,"InChI=1S/C6H6FN/c7-5-1-3-6(8)4-2-5/h1-4H,8H2",KRZCOLNOCZKSDF-UHFFFAOYSA-N,Nc1ccc(F)cc1,-0.5272743845000001,0.0,1,G1,111.119,1.4079,30.8124,8.0,1.0,1.0,2.0,0.0,42.0,1.0,0.0,0.0,1.0,26.02,46.936829219435914,3.0324555320336755,147.38833891467198
A-3850,"sodium 3,5-bis(methoxycarbonyl)benzene-1-sulfonate","InChI=1S/C10H10O7S.Na/c1-16-9(11)6-3-7(10(12)17-2)5-8(4-6)18(13,14)15;/h3-5H,1-2H3,(H,13,14,15);/q;+1/p-1",LLHSEQCZSNZLRI-UHFFFAOYSA-M,COC(=O)c1cc(C(=O)OC)cc(S(=O)(=O)[O-])c1.[Na+],-0.9664819924,0.0,1,G1,296.232,-2.832099999999998,57.084200000000024,19.0,7.0,0.0,9.0,3.0,98.0,1.0,0.0,0.0,1.0,109.8,131.48334186893726,3.239998428600798e-06,559.645773030434
A-3881,"(2,2-dimethoxyethyl)benzene","InChI=1S/C10H14O2/c1-11-10(12-2)8-9-6-4-3-5-7-9/h3-7,10H,8H2,1-2H3",WNJSKZBEWNVKGU-UHFFFAOYSA-N,COC(Cc1ccccc1)OC,-1.6296186709,0.0,1,G1,166.21999999999997,1.848,47.95200000000004,12.0,2.0,0.0,2.0,4.0,66.0,1.0,0.0,0.0,1.0,18.46,73.11826203609715,2.508062494967292,204.33838110546367
A-3884,"3-[(4-hydroxy-3-methoxyphenyl)methyl]pentane-2,4-dione","InChI=1S/C13H16O4/c1-8(14)11(9(2)15)6-10-4-5-12(16)13(7-10)17-3/h4-5,7,11,16H,6H2,1-3H3",IFGDRUTWCITGHG-UHFFFAOYSA-N,COc1cc(CC(C(C)=O)C(C)=O)ccc1O,-1.7863659491,0.0,1,G1,236.267,1.7374999999999998,63.21480000000004,17.0,4.0,1.0,4.0,5.0,92.0,1.0,0.0,0.0,1.0,63.60000000000001,100.21682110206363,2.9378566391048997,423.0456447344208
A-3895,"2,5-dimethylphenol","InChI=1S/C8H10O/c1-6-3-4-7(2)8(9)5-6/h3-5,9H,1-2H3",NKTOLZVEWDHZMU-UHFFFAOYSA-N,Cc1ccc(C)c(O)c1,-1.5375827569,0.0234720161499999,2,G3,122.167,2.0090399999999997,37.5808,9.0,1.0,1.0,1.0,0.0,48.0,1.0,0.0,0.0,1.0,20.23,54.95552110048619,3.1716780304409156,215.80766205433727
A-3898,"2,3,5-trimethylbenzene-1,4-diol","InChI=1S/C9H12O2/c1-5-4-8(10)6(2)7(3)9(5)11/h4,10-11H,1-3H3",AUFZRCJENRSRLY-UHFFFAOYSA-N,Cc1cc(O)c(C)c(C)c1O,-1.6383266335,0.0,1,G1,152.19299999999998,2.0230600000000005,43.98260000000002,11.0,2.0,2.0,2.0,0.0,60.0,1.0,0.0,0.0,1.0,40.46,66.11469696707881,3.4555464838177836,263.8544742134815
A-3900,[2-(4-aminobenzenesulfonyl)ethoxy]sulfonic acid,"InChI=1S/C8H11NO6S2/c9-7-1-3-8(4-2-7)16(10,11)6-5-15-17(12,13)14/h1-4H,5-6,9H2,(H,12,13,14)",IALORYHODRVWKZ-UHFFFAOYSA-N,Nc1ccc(S(=O)(=O)CCOS(=O)(=O)O)cc1,-1.9051186702,0.0,1,G1,281.311,-0.1380999999999997,60.407800000000016,17.0,6.0,2.0,9.0,5.0,96.0,1.0,0.0,0.0,1.0,123.76,99.077761542695,2.728446449304219,574.9463481728366
A-3908,2-(trifluoromethyl)aniline,"InChI=1S/C7H6F3N/c8-7(9,10)5-3-1-2-4-6(5)11/h1-4H,11H2",VBLXCTYLWZJBKA-UHFFFAOYSA-N,Nc1ccccc1C(F)(F)F,-1.6756867087,0.0,1,G1,161.12599999999998,2.2876000000000003,35.856400000000015,11.0,1.0,1.0,4.0,0.0,60.0,1.0,0.0,0.0,1.0,26.02,61.63284213968499,3.1411091905317954,254.1077532761268
A-3915,N-(2-methoxyphenyl)-3-oxobutanamide,"InChI=1S/C11H13NO3/c1-8(13)7-11(14)12-9-5-3-4-6-10(9)15-2/h3-6H,7H2,1-2H3,(H,12,14)",KYYRTDXOHQYZPO-UHFFFAOYSA-N,COc1ccccc1NC(=O)CC(C)=O,-1.8059055211,0.0,1,G1,207.22899999999996,1.6127999999999998,56.92170000000002,15.0,3.0,1.0,4.0,4.0,80.0,1.0,0.0,0.0,1.0,55.4,88.24256530468247,2.711793612142758,373.8507128220061
A-3922,4-methylbenzene-1-sulfonamide,"InChI=1S/C7H9NO2S/c1-6-2-4-7(5-3-6)11(8,9)10/h2-5H,1H3,(H2,8,9,10)",LMYRWZFENFIFIT-UHFFFAOYSA-N,Cc1ccc(S(N)(=O)=O)cc1,-1.7421953353,0.0,1,G1,171.22099999999998,0.6424200000000001,42.55220000000001,11.0,2.0,1.0,4.0,1.0,60.0,1.0,0.0,0.0,1.0,60.16,65.89701182332136,3.2015159310664942,339.20825254565904
A-3932,2-methoxy-5-methylaniline,"InChI=1S/C8H11NO/c1-6-3-4-8(10-2)7(9)5-6/h3-5H,9H2,1-2H3",WXWCDTXEKCVRRO-UHFFFAOYSA-N,COc1ccc(C)cc1N,-1.6601758755,0.0,1,G1,137.18199999999996,1.58582,42.14340000000001,10.0,2.0,1.0,2.0,1.0,54.0,1.0,0.0,0.0,1.0,35.25,60.61472327480977,3.0699827149988397,232.69924244622516
A-3934,4-chloroaniline,"InChI=1S/C6H6ClN/c7-5-1-3-6(8)4-2-5/h1-4H,8H2",QSNSCYSYFYORTR-UHFFFAOYSA-N,Nc1ccc(Cl)cc1,-1.628640918,0.0659723309600253,4,G5,127.574,1.9222,35.86440000000002,8.0,1.0,1.0,2.0,0.0,42.0,1.0,0.0,0.0,1.0,26.02,53.07456004339135,3.0324555320336755,147.38833891467198
A-3967,"Benzenesulfonic acid, mono-C11-13-branched alkyl derivs., sodium salts","InChI=1S/C18H30O3S.Na/c1-3-5-9-16(4-2)10-7-6-8-11-17-12-14-18(15-13-17)22(19,20)21;/h12-16H,3-11H2,1-2H3,(H,19,20,21);/q;+1/p-1",HLZPFMSGWIVXAK-UHFFFAOYSA-M,CCCCC(CC)CCCCCc1ccc(S(=O)(=O)[O-])cc1.[Na+],-0.0969056512,0.0,1,G1,348.48400000000004,1.913999999999999,89.88320000000007,23.0,3.0,0.0,5.0,11.0,126.0,1.0,0.0,0.0,1.0,57.2,163.85274412500888,4.839994607806221e-06,511.5731649013525
A-3999,4-chlorophenol,"InChI=1S/C6H5ClO/c7-5-1-3-6(8)4-2-5/h1-4,8H",WXNZTHHGJRFXKQ-UHFFFAOYSA-N,Oc1ccc(Cl)cc1,-0.6876597172,0.0227735028480295,5,G5,128.558,2.0456,33.1168,8.0,1.0,1.0,2.0,0.0,42.0,1.0,0.0,0.0,1.0,20.23,52.52890309857465,3.0324555320336755,147.38833891467198
A-4001,2-methylphenol,"InChI=1S/C7H8O/c1-6-4-2-3-5-7(6)8/h2-5,8H,1H3",QWVGKYWNOKOFNN-UHFFFAOYSA-N,Cc1ccccc1O,-0.6190130172999999,0.00851666965,2,G3,108.14,1.70062,32.843799999999995,8.0,1.0,1.0,1.0,0.0,42.0,1.0,0.0,0.0,1.0,20.23,48.59057898608958,3.134861511345448,160.49662946459569
A-4017,2-phenoxyethan-1-ol,"InChI=1S/C8H10O2/c9-6-7-10-8-4-2-1-3-5-8/h1-5,9H,6-7H2",QCDWFXQBSFUVSP-UHFFFAOYSA-N,OCCOc1ccccc1,-0.742461176,0.0190644000262581,4,G5,138.16599999999997,1.0577,39.02280000000002,10.0,2.0,1.0,2.0,3.0,54.0,1.0,0.0,0.0,1.0,29.46,60.06906632999306,2.4265223465879537,171.872282370036
A-4031,(4-methoxyphenyl)methanol,"InChI=1S/C8H10O2/c1-10-8-4-2-7(6-9)3-5-8/h2-5,9H,6H2,1H3",MSHFRERJPWKJFX-UHFFFAOYSA-N,COc1ccc(CO)cc1,-0.7447271456,0.5617915617527607,3,G4,138.166,1.1874999999999998,38.91680000000001,10.0,2.0,1.0,2.0,2.0,54.0,1.0,0.0,0.0,1.0,29.46,60.06906632999306,2.797251262969787,167.91749419417292
A-4032,aniline; formaldehyde,"InChI=1S/C6H7N.CH2O/c7-6-4-2-1-3-5-6;1-2/h1-5H,7H2;1H2",OUCPJZWNFRYRBI-UHFFFAOYSA-N,C=O.Nc1ccccc1,-2.0040922179,0.2778319356160217,3,G5,123.155,1.0839,37.975400000000015,9.0,2.0,1.0,2.0,0.0,48.0,1.0,0.0,0.0,1.0,43.09,54.30358918447927,2.914285599204087e-07,150.26213946331586
A-4047,3-methylphenol,"InChI=1S/C7H8O/c1-6-3-2-4-7(8)5-6/h2-5,8H,1H3",RLSSMJSEOOYNOY-UHFFFAOYSA-N,Cc1cccc(O)c1,-0.662918503,0.0075210024999999,2,G3,108.14,1.7006199999999998,32.843799999999995,8.0,1.0,1.0,1.0,0.0,42.0,1.0,0.0,0.0,1.0,20.23,48.59057898608958,3.077660437970554,164.24662946459569
A-4061,benzoate; diaminomethylideneazanium,"InChI=1S/C7H6O2.CH6N3/c8-7(9)6-4-2-1-3-5-6;2-1(3)4/h1-5H,(H,8,9);2-4H2/q;+1/p-1",KNBXROBXQPEXAM-UHFFFAOYSA-M,N[C+](N)N.O=C([O-])c1ccccc1,0.0050162556,0.0,1,G1,181.195,-1.640409999999999,46.57770000000001,13.0,5.0,3.0,5.0,1.0,70.0,1.0,0.0,0.0,1.0,118.19,76.14254644509734,3.0999999042847253e-07,246.0709812656809
A-4064,sodium 2-phenoxyacetate,"InChI=1S/C8H8O3.Na/c9-8(10)6-11-7-4-2-1-3-5-7;/h1-5H,6H2,(H,9,10);/q;+1/p-1",WPTJBFNYRRZIDZ-UHFFFAOYSA-M,O=C([O-])COc1ccccc1.[Na+],0.1085957051,0.0,1,G1,174.131,-3.180699999999997,36.94400000000001,12.0,3.0,0.0,4.0,3.0,58.0,1.0,0.0,0.0,1.0,49.36,92.6439880527488,1.20999969337508e-06,235.31810563069448
A-4070,2-chlorophenol,"InChI=1S/C6H5ClO/c7-5-3-1-2-4-6(5)8/h1-4,8H",ISPYQTSUDJAMAB-UHFFFAOYSA-N,Oc1ccccc1Cl,-0.7538392019,0.1451426870684993,3,G5,128.558,2.0456000000000003,33.1168,8.0,1.0,1.0,2.0,0.0,42.0,1.0,0.0,0.0,1.0,20.23,52.52890309857465,3.134861511345448,164.63833891467198
A-4073,"4-bromo-1,2-dichlorobenzene",InChI=1S/C6H3BrCl2/c7-4-1-2-5(8)6(9)3-4/h1-3H,CFPZDVAZISWERM-UHFFFAOYSA-N,Clc1ccc(Br)cc1Cl,-1.0114935501,0.0,1,G1,225.9,3.755900000000001,44.16200000000001,9.0,0.0,0.0,3.0,0.0,48.0,1.0,0.0,0.0,1.0,0.0,71.90548317890166,3.171678030440915,222.29788705001033
A-4083,sodium 4-aminobenzene-1-sulfonate,"InChI=1S/C6H7NO3S.Na/c7-5-1-3-6(4-2-5)11(8,9)10;/h1-4H,7H2,(H,8,9,10);/q;+1/p-1",KSVSZLXDULFGDQ-UHFFFAOYSA-M,Nc1ccc(S(=O)(=O)[O-])cc1.[Na+],0.0379554154,0.0,1,G1,195.17499999999995,-2.8230999999999984,38.817600000000006,12.0,4.0,1.0,6.0,1.0,60.0,1.0,0.0,0.0,1.0,83.22,92.81332944926226,1.2099997657000466e-06,345.56087669721546
A-4108,2-(methylamino)-1-phenylpropan-1-ol hydrochloride,"InChI=1S/C10H15NO.ClH/c1-8(11-2)10(12)9-6-4-3-5-7-9;/h3-8,10-12H,1-2H3;1H/t8-,10-;/m0./s1",BALXUFOVQVENIU-GNAZCLTHSA-N,CN[C@@H](C)[C@H](O)c1ccccc1.[Cl-].[H+],-0.003669443,0.0,1,G1,201.697,-1.5555999999999983,51.035500000000035,13.0,2.0,2.0,3.0,3.0,74.0,1.0,0.0,0.0,1.0,32.26,86.87315913493241,0.0,232.8234244616113
A-4110,sodium 3-nitrobenzene-1-sulfonate,"InChI=1S/C6H5NO5S.Na/c8-7(9)5-2-1-3-6(4-5)13(10,11)12;/h1-4H,(H,10,11,12);/q;+1/p-1",LJRGBERXYNQPJI-UHFFFAOYSA-M,O=[N+]([O-])c1cccc(S(=O)(=O)[O-])c1.[Na+],-0.0514554578,0.7835856628456082,4,G4,225.15699999999995,-2.4970999999999988,41.05960000000002,14.0,5.0,0.0,8.0,2.0,70.0,1.0,0.0,0.0,1.0,100.34,102.12641447474932,1.6899995544251203e-06,443.29001530236616
A-4115,"2-hydroxy-3,5-dinitrobenzoic acid","InChI=1S/C7H4N2O7/c10-6-4(7(11)12)1-3(8(13)14)2-5(6)9(15)16/h1-2,10H,(H,11,12)",LWFUFLREGJMOIZ-UHFFFAOYSA-N,O=C(O)c1cc([N+](=O)[O-])cc([N+](=O)[O-])c1O,-1.057125752,0.0,1,G1,228.116,0.9067999999999998,48.3749,16.0,6.0,2.0,9.0,3.0,84.0,1.0,0.0,0.0,1.0,143.81,86.85228628332895,3.5727545380551327,460.5038631394357
A-4116,2-phenylethan-1-ol,"InChI=1S/C8H10O/c9-7-6-8-4-2-1-3-5-8/h1-5,9H,6-7H2",WRMNZCZEMHIOCP-UHFFFAOYSA-N,OCCc1ccccc1,-0.7859239136,0.0422840790633597,3,G5,122.16699999999996,1.2214,37.23180000000001,9.0,1.0,1.0,1.0,2.0,48.0,1.0,0.0,0.0,1.0,20.23,54.95552110048619,2.61489994009295,157.4784207656209
A-4123,salicylonitrile,"InChI=1S/C7H5NO/c8-5-6-3-1-2-4-7(6)9/h1-4,9H",CHZCERSEMVWNHL-UHFFFAOYSA-N,N#Cc1ccccc1O,-0.7749656265,0.0954082422872603,3,G5,119.123,1.26388,32.821799999999996,9.0,2.0,1.0,2.0,0.0,44.0,1.0,0.0,0.0,1.0,44.02,52.9831586675583,3.199326438626795,249.3382179862608
A-4128,benzoic acid,"InChI=1S/C7H6O2/c8-7(9)6-4-2-1-3-5-6/h1-5H,(H,8,9)",WPYMKLBDIGXBTP-UHFFFAOYSA-N,O=C(O)c1ccccc1,-1.619929844,0.0452226064107283,3,G5,122.12299999999996,1.3848,33.4013,9.0,1.0,1.0,2.0,1.0,46.0,1.0,0.0,0.0,1.0,37.3,52.75210108613335,2.981454614041131,203.415952604261
A-4132,benzyl formate,"InChI=1S/C8H8O2/c9-7-10-6-8-4-2-1-3-5-8/h1-5,7H,6H2",UYWQUFXKFGHYNT-UHFFFAOYSA-N,O=COCc1ccccc1,-1.6731198028999998,0.0,1,G1,136.14999999999998,1.3596,37.295000000000016,10.0,2.0,0.0,2.0,3.0,52.0,1.0,0.0,0.0,1.0,26.3,59.43635467784082,2.4987708532837547,193.6723816963364
A-4138,1-carbamimidamido-N-(2-methylphenyl)methanimidamide,"InChI=1S/C9H13N5/c1-6-4-2-3-5-7(6)13-9(12)14-8(10)11/h2-5H,1H3,(H6,10,11,12,13,14)",SQZCAOHYQSOZCE-UHFFFAOYSA-N,Cc1ccccc1N=C(N)N=C(N)N,-1.8422414993,0.0,1,G1,191.23799999999997,0.2146200000000002,58.2712,14.0,1.0,3.0,5.0,1.0,74.0,1.0,0.0,0.0,1.0,102.78,82.33654652544519,2.9777358315168203,376.5436330900115
A-4143,N-(2-methylphenyl)-3-oxobutanamide,"InChI=1S/C11H13NO2/c1-8-5-3-4-6-10(8)12-11(14)7-9(2)13/h3-6H,7H2,1-2H3,(H,12,14)",TVZIWRMELPWPPR-UHFFFAOYSA-N,CC(=O)CC(=O)Nc1ccccc1C,-1.8501922609,0.0228787453,2,G3,191.23,1.91262,55.106700000000025,14.0,2.0,1.0,3.0,3.0,74.0,1.0,0.0,0.0,1.0,46.17,83.12902007517556,2.649628786208871,358.06009353303034
A-4146,"2,2'-(1,3-phenylene)dipropan-2-ol","InChI=1S/C12H18O2/c1-11(2,13)9-6-5-7-10(8-9)12(3,4)14/h5-8,13-14H,1-4H3",UGPWRRVOLLMHSC-UHFFFAOYSA-N,CC(C)(O)c1cccc(C(C)(C)O)c1,-1.8635330455,0.0332400285999999,2,G3,194.27399999999997,2.1414000000000004,56.931600000000046,14.0,2.0,2.0,2.0,2.0,78.0,1.0,0.0,0.0,1.0,40.46,85.20952331026862,3.148163892365612,286.578993542009
A-4147,2-ethyl-6-methylaniline,"InChI=1S/C9H13N/c1-3-8-6-4-5-7(2)9(8)10/h4-6H,3,10H2,1-2H3",JJVKJJNCIILLRP-UHFFFAOYSA-N,CCc1cccc(C)c1N,-1.7061271762,0.0657104321000001,2,G3,135.20999999999995,2.13962,44.96940000000002,10.0,1.0,1.0,1.0,1.0,54.0,1.0,0.0,0.0,1.0,26.02,61.866120159699506,3.14303948130643,228.1699174332443
A-4151,N-(4-methoxyphenyl)-3-oxobutanamide,"InChI=1S/C11H13NO3/c1-8(13)7-11(14)12-9-3-5-10(15-2)6-4-9/h3-6H,7H2,1-2H3,(H,12,14)",SWAJJKROCOJICG-UHFFFAOYSA-N,COc1ccc(NC(=O)CC(C)=O)cc1,-1.9014771833,0.0,1,G1,207.229,1.6127999999999998,56.92170000000002,15.0,3.0,1.0,4.0,4.0,80.0,1.0,0.0,0.0,1.0,55.4,88.24256530468249,2.5685736527852465,356.60071282200613
A-4154,4-cyanophenyl acetate,"InChI=1S/C9H7NO2/c1-7(11)12-9-4-2-8(6-10)3-5-9/h2-5H,1H3",CJGXWABHYYJNJH-UHFFFAOYSA-N,CC(=O)Oc1ccc(C#N)cc1,-1.7990172934,0.0,1,G1,161.16,1.48358,42.46600000000002,12.0,3.0,0.0,3.0,1.0,60.0,1.0,0.0,0.0,1.0,50.09,70.19387647370614,2.795385187635226,321.3769263952092
A-4167,2-chlorobenzenethiol,"InChI=1S/C6H5ClS/c7-5-3-1-2-4-6(5)8/h1-4,8H",PWOBDMNCYMQTCE-UHFFFAOYSA-N,Sc1ccccc1Cl,-1.7800351331,0.4394509894319334,3,G5,144.62599999999998,2.6287000000000003,38.704000000000015,8.0,1.0,1.0,2.0,0.0,42.0,1.0,0.0,0.0,1.0,0.0,58.88973600978036,3.134861511345448,164.63833891467198
A-4170,[(2-chlorophenyl)methyl]dimethylamine,"InChI=1S/C9H12ClN/c1-11(2)7-8-5-3-4-6-9(8)10/h3-6H,7H2,1-2H3",MZKKJAOOPDDXQQ-UHFFFAOYSA-N,CN(C)Cc1ccccc1Cl,-1.8493554218,0.8566052217500001,2,G2,169.65499999999997,2.4016,48.84300000000003,11.0,1.0,0.0,2.0,2.0,60.0,1.0,0.0,0.0,1.0,3.24,72.58932935977182,2.7755013203964274,232.75927179154445
A-4178,benzenesulfonyl chloride,"InChI=1S/C6H5ClO2S/c7-10(8,9)6-4-2-1-3-5-6/h1-5H",CSKNSYBAZOQPLR-UHFFFAOYSA-N,O=S(=O)(Cl)c1ccccc1,-1.88532188,0.0,1,G1,176.62400000000002,1.6141,39.480800000000016,10.0,2.0,0.0,4.0,1.0,54.0,1.0,0.0,0.0,1.0,34.14,63.86387098136106,3.2186466288823383,303.7795180972205
A-4180,3-hydroxy-4-methoxybenzaldehyde,"InChI=1S/C8H8O3/c1-11-8-3-2-6(5-9)4-7(8)10/h2-5,10H,1H3",JVTZFYYHCGSXJV-UHFFFAOYSA-N,COc1ccc(C=O)cc1O,-1.8262432451,0.0,1,G1,152.14899999999997,1.2132999999999998,40.046300000000016,11.0,3.0,1.0,3.0,2.0,58.0,1.0,0.0,0.0,1.0,46.53,64.23058843003683,3.0854525021372017,268.03972257956417
A-4181,4-methylbenzaldehyde,"InChI=1S/C8H8O/c1-7-2-4-8(6-9)5-3-7/h2-6H,1H3",FXLOVSHXALFLKQ-UHFFFAOYSA-N,Cc1ccc(C=O)cc1,-1.7237015325,0.4790429242999999,2,G3,120.15099999999998,1.80752,36.566500000000005,9.0,1.0,0.0,1.0,1.0,46.0,1.0,0.0,0.0,1.0,17.07,54.32280944833394,3.009781947786601,198.3125495565008
A-4182,4-amino-3-nitrophenol,"InChI=1S/C6H6N2O3/c7-5-2-1-4(9)3-6(5)8(10)11/h1-3,9H,7H2",IQXUIDYRTHQTET-UHFFFAOYSA-N,Nc1ccc(O)cc1[N+](=O)[O-],-1.8337646505,0.0,1,G1,154.125,0.8825999999999998,39.17360000000001,11.0,4.0,2.0,5.0,1.0,58.0,1.0,0.0,0.0,1.0,89.38999999999999,62.21850329120549,3.232208870305491,297.8789117242989
A-4184,2-nitrophenol,"InChI=1S/C6H5NO3/c8-6-4-2-1-3-5(6)7(9)10/h1-4,8H",IQUPABOKLQSFBK-UHFFFAOYSA-N,O=[N+]([O-])c1ccccc1O,-1.8029142358,0.032277332906406,3,G5,139.11,1.3004000000000002,34.7612,10.0,3.0,1.0,4.0,1.0,52.0,1.0,0.0,0.0,1.0,63.37,56.87861259419278,3.1529414466808685,258.9247708743934
A-4188,"1-(2,6-dimethylphenoxy)acetone","InChI=1S/C11H14O2/c1-8-5-4-6-9(2)11(8)13-7-10(3)12/h4-6H,7H2,1-3H3",XDJULAUHYAJQBU-UHFFFAOYSA-N,CC(=O)COc1c(C)cccc1C,-1.9185447839,0.0,1,G1,178.231,2.2712400000000006,52.09200000000003,13.0,2.0,0.0,2.0,3.0,70.0,1.0,0.0,0.0,1.0,26.3,78.53118102103065,2.8069205617428654,295.6163594789427
A-4189,"2,5-dimethoxyaniline","InChI=1S/C8H11NO2/c1-10-6-3-4-8(11-2)7(9)5-6/h3-5H,9H2,1-2H3",NAZDVUBIEPVUKE-UHFFFAOYSA-N,COc1ccc(OC)c(N)c1,-1.8588690394,0.0,1,G1,153.18099999999998,1.286,43.95840000000002,11.0,3.0,1.0,3.0,2.0,60.0,1.0,0.0,0.0,1.0,44.48,65.72826850431666,2.992962951841593,247.8474159248874
A-4192,"N-(2,4-dimethylphenyl)-3-oxobutanamide","InChI=1S/C12H15NO2/c1-8-4-5-11(9(2)6-8)13-12(15)7-10(3)14/h4-6H,7H2,1-3H3,(H,13,15)",HGVIAKXYAZRSEG-UHFFFAOYSA-N,CC(=O)CC(=O)Nc1ccc(C)cc1C,-1.9900786823,0.0,1,G1,205.257,2.2210400000000003,59.84370000000003,15.0,2.0,1.0,3.0,3.0,80.0,1.0,0.0,0.0,1.0,46.17,89.49396218957217,2.7237155741065955,396.608634681643
A-4193,N-(2-methoxy-5-methylphenyl)acetamide,"InChI=1S/C10H13NO2/c1-7-4-5-10(13-3)9(6-7)11-8(2)12/h4-6H,1-3H3,(H,11,12)",POLMNXCVMYMLSF-UHFFFAOYSA-N,COc1ccc(C)cc1NC(C)=O,-1.931164755,0.0,1,G1,179.21899999999997,1.96202,52.03470000000002,13.0,2.0,1.0,3.0,2.0,70.0,1.0,0.0,0.0,1.0,38.33,77.71610109024208,3.0053870485403893,320.7008263350793
A-4206,3-phenylbutanal,"InChI=1S/C10H12O/c1-9(7-8-11)10-5-3-2-4-6-10/h2-6,8-9H,7H2,1H3",MYHGOWDLVRDUFA-UHFFFAOYSA-N,CC(CC=O)c1ccccc1,-1.86983286,0.0,1,G1,148.20499999999998,2.3791,45.53800000000003,11.0,1.0,0.0,1.0,3.0,58.0,1.0,0.0,0.0,1.0,17.07,67.05269367712717,2.680097320748244,215.57420335781515
A-4207,4-amino-3-methylphenol,"InChI=1S/C7H9NO/c1-5-4-6(9)2-3-7(5)8/h2-4,9H,8H2,1H3",QGNGOGOOPUYKMC-UHFFFAOYSA-N,Cc1cc(O)ccc1N,-1.7894220529,0.0774509799999999,2,G3,123.155,1.2828199999999998,37.2562,9.0,2.0,2.0,2.0,0.0,48.0,1.0,0.0,0.0,1.0,46.25,53.930469683102295,3.1716780304409156,220.15617759993404
A-4211,methyl 2-oxo-2-phenylacetate,"InChI=1S/C9H8O3/c1-12-9(11)8(10)7-5-3-2-4-6-7/h2-6H,1H3",YLHXLHGIAMFFBU-UHFFFAOYSA-N,COC(=O)C(=O)c1ccccc1,-1.9142373478,1.4978393130999996,2,G2,164.16,1.0423,42.78850000000002,12.0,3.0,0.0,3.0,2.0,62.0,1.0,0.0,0.0,1.0,43.370000000000005,69.96281889228119,2.861313088009411,289.90177445528485
A-4216,4-(aminomethyl)-2-methoxyphenol hydrochloride,"InChI=1S/C8H11NO2.Cl/c1-11-8-4-6(5-9)2-3-7(8)10;/h2-4,10H,5,9H2,1H3;",LOYPVODLNGWOLM-UHFFFAOYSA-N,COc1cc(CN)ccc1O.[Cl],0.0188462521,0.0,1,G1,188.634,1.5489999999999997,48.40320000000002,12.0,3.0,2.0,4.0,2.0,67.0,1.0,0.0,0.0,1.0,55.48,77.56205027955521,1.209999748283388e-06,252.81321812853105
A-4223,"2-methylbenzene-1,3-diol","InChI=1S/C7H8O2/c1-5-6(8)3-2-4-7(5)9/h2-4,8-9H,1H3",ZTMADXFOCUXMJE-UHFFFAOYSA-N,Cc1c(O)cccc1O,0.1927727267,0.06681363665,2,G3,124.13899999999995,1.4062199999999998,34.5086,9.0,2.0,2.0,2.0,0.0,48.0,1.0,0.0,0.0,1.0,40.46,53.3848127382856,3.2478347337367035,197.90617759993407
A-4252,4-ethoxyaniline,"InChI=1S/C8H11NO/c1-2-10-8-5-3-7(9)4-6-8/h3-6H,2,9H2,1H3",IMPPGHMHELILKG-UHFFFAOYSA-N,CCOc1ccc(N)cc1,-0.8608353259999999,0.0122840956999999,2,G3,137.182,1.6675,42.02340000000001,10.0,2.0,1.0,2.0,2.0,54.0,1.0,0.0,0.0,1.0,35.25,60.61472327480977,2.693803452362809,192.91749419417292
A-4254,3-(2-chlorophenyl)-3-oxopropanenitrile,"InChI=1S/C9H6ClNO/c10-8-4-2-1-3-7(8)9(12)5-6-11/h1-4H,5H2",SBSWHTFHLWSSQS-UHFFFAOYSA-N,N#CCC(=O)c1ccccc1Cl,-2.1751395948,0.0,1,G1,179.60599999999997,2.43638,46.01250000000002,12.0,2.0,0.0,3.0,2.0,60.0,1.0,0.0,0.0,1.0,40.86,75.38359747108093,2.966312247577214,340.6269263952092