ID,Name,InChI,InChIKey,SMILES,Solubility,SD,Occurrences,Group,MolWt,MolLogP,MolMR,HeavyAtomCount,NumHAcceptors,NumHDonors,NumHeteroatoms,NumRotatableBonds,NumValenceElectrons,NumAromaticRings,NumSaturatedRings,NumAliphaticRings,RingCount,TPSA,LabuteASA,BalabanJ,BertzCT
B-3075,"benzenemethanol, 2,3(or 3,4)-dichloro-, methyl c","InChI=1S/C9H9Cl2NO2/c1-12-9(13)14-5-6-3-2-4-7(10)8(6)11/h2-4H,5H2,1H3,(H,12,13)",SESJCOBCXSACPH-UHFFFAOYSA-N,CNC(=O)OCc1cccc(Cl)c1Cl,-3.1389,0.0,1,G1,234.082,2.849400000000001,55.70670000000002,14.0,2.0,1.0,5.0,2.0,76.0,1.0,0.0,0.0,1.0,38.33,91.9576914296088,2.675591917633231,341.5838810441725
B-3077,"urea, n-butyl-n-phenyl","InChI=1S/C11H16N2O/c1-2-3-9-13(11(12)14)10-7-5-4-6-8-10/h4-8H,2-3,9H2,1H3,(H2,12,14)",GOGYHVOOMHFPAC-UHFFFAOYSA-N,CCCCN(C(N)=O)c1ccccc1,-1.2971,0.0,1,G1,192.26200000000003,2.3718000000000004,58.27940000000003,14.0,1.0,1.0,3.0,4.0,76.0,1.0,0.0,0.0,1.0,46.33,84.51736015873988,2.729890157645924,284.5988225339022
B-3079,fenothiocarb,"InChI=1S/C13H19NO2S/c1-14(2)13(15)17-11-7-6-10-16-12-8-4-3-5-9-12/h3-5,8-9H,6-7,10-11H2,1-2H3",HMIBKHHNXANVHR-UHFFFAOYSA-N,CN(C)C(=O)SCCCCOc1ccccc1,-3.9266,0.0,1,G1,253.367,3.2604000000000024,72.71200000000005,17.0,3.0,0.0,4.0,6.0,94.0,1.0,0.0,0.0,1.0,29.540000000000003,107.1440089453925,2.0013910130846315,327.45116411809533
B-3082,"benzeneacetonitrile, alpha-((cyanomethoxy)imino)","InChI=1S/C10H7N3O/c11-6-7-14-13-10(8-12)9-4-2-1-3-5-9/h1-5H,7H2/b13-10+",PYKLUAIDKVVEOS-JLHYYAGUSA-N,N#CCO/N=C(\C#N)c1ccccc1,-3.2899,0.0,1,G1,185.18600000000004,1.45446,50.157000000000025,14.0,4.0,0.0,4.0,3.0,68.0,1.0,0.0,0.0,1.0,69.16999999999999,81.63923715486582,2.797492929880006,397.6155543706911
B-3094,anilofos,"InChI=1S/C13H19ClNO3PS2/c1-10(2)15(12-7-5-11(14)6-8-12)13(16)9-21-19(20,17-3)18-4/h5-8,10H,9H2,1-4H3",NXQDBZGWYSEGFL-UHFFFAOYSA-N,COP(=S)(OC)SCC(=O)N(c1ccc(Cl)cc1)C(C)C,-4.4321,0.0,1,G1,367.86,4.331900000000004,94.83500000000004,21.0,5.0,0.0,8.0,7.0,118.0,1.0,0.0,0.0,1.0,38.77,139.60266286998527,2.842070207560657,516.6525869673495
B-3099,"acetamide, 2-(benzoyloxy)-","InChI=1S/C9H9NO3/c10-8(11)6-13-9(12)7-4-2-1-3-5-7/h1-5H,6H2,(H2,10,11)",HBEWADIWKZVJSD-UHFFFAOYSA-N,NC(=O)COC(=O)c1ccccc1,-1.6405,0.0,1,G1,179.175,0.3286999999999997,45.918900000000015,13.0,3.0,1.0,4.0,3.0,68.0,1.0,0.0,0.0,1.0,69.39000000000001,75.30270958929393,2.544573341953591,307.89566977313564
B-3100,"acetamide, 2-(benzoyloxy)-n-ethyl-","InChI=1S/C11H13NO3/c1-2-12-10(13)8-15-11(14)9-6-4-3-5-7-9/h3-7H,2,8H2,1H3,(H,12,13)",FPWKJKWOCSENMO-UHFFFAOYSA-N,CCNC(=O)COC(=O)c1ccccc1,-2.2373,0.0,1,G1,207.229,0.9794999999999998,55.40820000000003,15.0,3.0,1.0,4.0,4.0,80.0,1.0,0.0,0.0,1.0,55.4,88.24256530468247,2.404221436579065,334.9460875329806
B-3101,"benzoic acid, 2-(diethylamino)-2-oxoethyl ester","InChI=1S/C13H17NO3/c1-3-14(4-2)12(15)10-17-13(16)11-8-6-5-7-9-11/h5-9H,3-4,10H2,1-2H3",MTAAHMQCSJMGHI-UHFFFAOYSA-N,CCN(CC)C(=O)COC(=O)c1ccccc1,-2.0706,0.0,1,G1,235.283,1.7117999999999998,64.65250000000005,17.0,3.0,0.0,4.0,5.0,92.0,1.0,0.0,0.0,1.0,46.61,101.18242102007102,2.4626162361341715,371.5107816340442
B-3106,"1,3-propanediol, 2-nitro-1-phenyl-, diacetate (e","InChI=1S/C13H15NO6/c1-9(15)19-8-12(14(17)18)13(20-10(2)16)11-6-4-3-5-7-11/h3-7,12-13H,8H2,1-2H3",AYBALPYBYZFKDS-UHFFFAOYSA-N,CC(=O)OCC(C(OC(C)=O)c1ccccc1)[N+](=O)[O-],-3.972,0.0,1,G1,281.26400000000007,1.4992,68.36440000000003,20.0,6.0,0.0,7.0,6.0,108.0,1.0,0.0,0.0,1.0,95.74,115.18910830187431,3.014435408643494,486.8945651123188
B-3107,fenitropan,"InChI=1S/C13H15NO6/c1-9(15)19-8-12(14(17)18)13(20-10(2)16)11-6-4-3-5-7-11/h3-7,12-13H,8H2,1-2H3/t12-,13+/m1/s1",AYBALPYBYZFKDS-OLZOCXBDSA-N,CC(=O)OC[C@H]([C@@H](OC(C)=O)c1ccccc1)[N+](=O)[O-],-3.972,0.0,1,G1,281.26400000000007,1.4992,68.36440000000003,20.0,6.0,0.0,7.0,6.0,108.0,1.0,0.0,0.0,1.0,95.74,115.18910830187431,3.014435408643494,486.8945651123188
B-3117,methasulfocarb,"InChI=1S/C9H11NO4S2/c1-10-9(11)15-8-5-3-7(4-6-8)14-16(2,12)13/h3-6H,1-2H3,(H,10,11)",IXJOSTZEBSTPAG-UHFFFAOYSA-N,CNC(=O)Sc1ccc(OS(C)(=O)=O)cc1,-2.7359,0.0,1,G1,261.32399999999996,1.4565,62.22650000000003,16.0,5.0,1.0,7.0,3.0,88.0,1.0,0.0,0.0,1.0,72.47,98.30867125905532,2.7178743394713973,466.7872820395884
B-3149,"acetamide, n-acetyl-2-(benzoyloxy)-","InChI=1S/C11H11NO4/c1-8(13)12-10(14)7-16-11(15)9-5-3-2-4-6-9/h2-6H,7H2,1H3,(H,12,13,14)",NZDAAPUTURAWII-UHFFFAOYSA-N,CC(=O)NC(=O)COC(=O)c1ccccc1,-2.4003,0.0,1,G1,221.212,0.5060999999999996,55.54820000000002,16.0,4.0,1.0,5.0,3.0,84.0,1.0,0.0,0.0,1.0,72.47,92.40408740472624,2.4191962930259066,399.70540649183863
B-3188,"1,2-benzenediol, 4-(1-propenyl)-","InChI=1S/C9H10O2/c1-2-3-7-4-5-8(10)9(11)6-7/h2-6,10-11H,1H3",MDXYNRAMDATLBT-UHFFFAOYSA-N,CC=Cc1ccc(O)c(O)c1,-1.3505,0.0,1,G1,150.177,2.1309000000000005,44.479600000000026,11.0,2.0,2.0,2.0,1.0,58.0,1.0,0.0,0.0,1.0,40.46,65.42509393489455,3.0479288566756857,276.89126405626786
B-3198,"hydrazinecarboxamide, n-(4-ethoxyphenyl)-","InChI=1S/C9H13N3O2/c1-2-14-8-5-3-7(4-6-8)11-9(13)12-10/h3-6H,2,10H2,1H3,(H2,11,12,13)",ZKSWEXOGEZLKIX-UHFFFAOYSA-N,CCOc1ccc(NC(=O)NN)cc1,-1.6471,0.0,1,G1,195.222,1.0804999999999998,53.95280000000001,14.0,3.0,3.0,5.0,3.0,76.0,1.0,0.0,0.0,1.0,76.38,82.21104787670122,2.589071736723409,297.430305853274
B-3216,"2,5-dibromobenzaldehyde",InChI=1S/C7H4Br2O/c8-6-1-2-7(9)5(3-6)4-10/h1-4H,BQBXKWGMPUCSQV-UHFFFAOYSA-N,O=Cc1cc(Br)ccc1Br,-3.8003,0.0,1,G1,263.91599999999994,3.0241000000000007,47.2295,10.0,1.0,0.0,3.0,1.0,52.0,1.0,0.0,0.0,1.0,17.07,75.69296254522007,3.211310929132047,257.78306142431705
B-3218,bromobutide,"InChI=1S/C15H22BrNO/c1-14(2,3)12(16)13(18)17-15(4,5)11-9-7-6-8-10-11/h6-10,12H,1-5H3,(H,17,18)",WZDDLAZXUYIVMU-UHFFFAOYSA-N,CC(C)(NC(=O)C(Br)C(C)(C)C)c1ccccc1,-4.9455,0.0,1,G1,312.251,3.847500000000003,79.78070000000005,18.0,1.0,1.0,3.0,3.0,100.0,1.0,0.0,0.0,1.0,29.1,118.29481403835962,2.8147696633159103,406.2518200090825
B-3228,"benzoic acid, 2-(acetyloxy)-, (methylthio)methyl","InChI=1S/C11H12O4S/c1-8(12)15-10-6-4-3-5-9(10)11(13)14-7-16-2/h3-6H,7H2,1-2H3",YFFMJOPTIBTOJH-UHFFFAOYSA-N,CSCOC(=O)c1ccccc1OC(C)=O,-2.6404,0.0,1,G1,240.28,2.0892,61.54850000000003,16.0,5.0,0.0,5.0,4.0,86.0,1.0,0.0,0.0,1.0,52.6,97.92935837594656,2.848625561296051,389.3258818636124
B-3229,"benzoic acid, 2-(acetyloxy)-, (methylsulfinyl)me","InChI=1S/C11H12O5S/c1-8(12)16-10-6-4-3-5-9(10)11(13)15-7-17(2)14/h3-6H,7H2,1-2H3",ZUYDNEVBJGMSGH-UHFFFAOYSA-N,CC(=O)Oc1ccccc1C(=O)OCS(C)=O,-1.7824,0.0,1,G1,256.27899999999994,1.1047,62.099900000000034,17.0,5.0,0.0,6.0,4.0,92.0,1.0,0.0,0.0,1.0,69.67000000000002,101.1805025541572,2.845282327965075,454.9299418941322
B-3230,"benzoic acid, 2-(acetyloxy)-, (methylsulfonyl)me","InChI=1S/C11H12O6S/c1-8(12)17-10-6-4-3-5-9(10)11(13)16-7-18(2,14)15/h3-6H,7H2,1-2H3",PTLSEGBRIAKFIJ-UHFFFAOYSA-N,CC(=O)Oc1ccccc1C(=O)OCS(C)(=O)=O,-3.3936,0.0,1,G1,272.27799999999996,0.7708,62.877300000000034,18.0,6.0,0.0,7.0,4.0,98.0,1.0,0.0,0.0,1.0,86.74000000000001,104.43164673236784,2.8812771372867427,560.6510991673838
B-3231,2-(2-chlorophenoxy)propanoic acid,"InChI=1S/C9H9ClO3/c1-6(9(11)12)13-8-5-3-2-4-7(8)10/h2-6H,1H3,(H,11,12)",ZGWNXHRVUJVMCP-UHFFFAOYSA-N,CC(Oc1ccccc1Cl)C(=O)O,-2.2232,0.0,1,G1,200.62099999999995,2.1919,49.17780000000002,13.0,2.0,1.0,4.0,3.0,70.0,1.0,0.0,0.0,1.0,46.53,80.89879677131512,2.742841851112674,311.48305328030176
B-3279,alanycarb,"InChI=1S/C17H25N3O4S2/c1-5-23-16(21)11-12-20(13-15-9-7-6-8-10-15)26-19(3)17(22)24-18-14(2)25-4/h6-10H,5,11-13H2,1-4H3/b18-14-",GMAUQNJOSOMMHI-JXAWBTAJSA-N,CCOC(=O)CCN(Cc1ccccc1)SN(C)C(=O)O/N=C(/C)SC,-4.3005,0.0,1,G1,399.5380000000002,3.7698000000000023,106.56100000000004,26.0,8.0,0.0,9.0,9.0,144.0,1.0,0.0,0.0,1.0,71.44,162.8819044346933,2.669288541412365,598.9306006286001
B-3285,phosmethylan,"InChI=1S/C13H19ClNO3PS2/c1-4-7-13(16)15(10-21-19(20,17-2)18-3)12-9-6-5-8-11(12)14/h5-6,8-9H,4,7,10H2,1-3H3",MVBGKYGTNGPFHT-UHFFFAOYSA-N,CCCC(=O)N(CSP(=S)(OC)OC)c1ccccc1Cl,-5.204,0.0,1,G1,367.86,4.681100000000004,94.60700000000006,21.0,5.0,0.0,8.0,8.0,118.0,1.0,0.0,0.0,1.0,38.77,139.60266286998532,2.965639937751805,521.8927658894296
B-3292,"benzenemethanol, 2,4-dichloro-, propanoate","InChI=1S/C10H10Cl2O2/c1-2-10(13)14-6-7-3-4-8(11)5-9(7)12/h3-5H,2,6H2,1H3",ABVWCZFYRJJFFG-UHFFFAOYSA-N,CCC(=O)OCc1ccc(Cl)cc1Cl,-3.0665,0.0,1,G1,233.094,3.446600000000002,56.54900000000003,14.0,2.0,0.0,4.0,3.0,76.0,1.0,0.0,0.0,1.0,26.3,92.77277136039736,2.6321748000640026,336.8939251082797
B-3295,esprocarb,"InChI=1S/C15H23NOS/c1-5-16(13(4)12(2)3)15(17)18-11-14-9-7-6-8-10-14/h6-10,12-13H,5,11H2,1-4H3",BXEHUCNTIZGSOJ-UHFFFAOYSA-N,CCN(C(=O)SCc1ccccc1)C(C)C(C)C,-4.7337,0.0,1,G1,265.42199999999997,4.406200000000004,79.81300000000005,18.0,2.0,0.0,3.0,5.0,100.0,1.0,0.0,0.0,1.0,20.31,114.76034794467884,2.5298626911913886,364.01616778904935
B-3298,propisochlor,"InChI=1S/C15H22ClNO2/c1-5-13-8-6-7-12(4)15(13)17(14(18)9-16)10-19-11(2)3/h6-8,11H,5,9-10H2,1-4H3",KZNDFYDURHAESM-UHFFFAOYSA-N,CCc1cccc(C)c1N(COC(C)C)C(=O)CCl,-3.1882,0.0,1,G1,283.7989999999999,3.511720000000002,79.85100000000004,19.0,2.0,0.0,4.0,6.0,106.0,1.0,0.0,0.0,1.0,29.54,120.05404937570212,3.1259087963303815,432.153792738549
B-3300,"carbamic acid, (3,4-diethoxyphenyl)-, 1-methylet","InChI=1S/C14H21NO4/c1-5-17-12-8-7-11(9-13(12)18-6-2)15-14(16)19-10(3)4/h7-10H,5-6H2,1-4H3,(H,15,16)",LNJNFVJKDJYTEU-UHFFFAOYSA-N,CCOc1ccc(NC(=O)OC(C)C)cc1OCC,-4.0022,0.0,1,G1,267.325,3.440900000000002,74.01970000000004,19.0,4.0,1.0,5.0,6.0,106.0,1.0,0.0,0.0,1.0,56.790000000000006,113.40296000684228,2.7928047763131674,417.90703313914366
B-3302,butenachlor,"InChI=1S/C17H24ClNO2/c1-4-7-11-21-13-19(16(20)12-18)17-14(5-2)9-8-10-15(17)6-3/h4,7-10H,5-6,11-13H2,1-3H3/b7-4-",HZDIJTXDRLNTIS-DAXSKMNVSA-N,C/C=C\COCN(C(=O)CCl)c1c(CC)cccc1CC,-4.0287,0.0,1,G1,309.837,3.9334000000000033,89.03700000000005,21.0,2.0,0.0,4.0,8.0,116.0,1.0,0.0,0.0,1.0,29.54,132.0943305723111,3.0947991300608138,463.428493989665
B-3319,"benzaldehyde, 2-amino-4-hydroxy-3-methoxy-","InChI=1S/C8H9NO3/c1-12-8-6(11)3-2-5(4-10)7(8)9/h2-4,11H,9H2,1H3",PNKIOGYYVJRTML-UHFFFAOYSA-N,COc1c(O)ccc(C=O)c1N,-0.2232,0.0,1,G1,167.164,0.7955000000000001,44.458700000000015,12.0,4.0,2.0,4.0,2.0,64.0,1.0,0.0,0.0,1.0,72.55,69.57047912704955,3.330537498737434,309.41643696177533
B-3320,"phthalic acid, 4-nitro-, 1-methyl ester","InChI=1S/C9H7NO6/c1-16-9(13)6-3-2-5(10(14)15)4-7(6)8(11)12/h2-4H,1H3,(H,11,12)/p-1",CEEJSCAKNYSVHF-UHFFFAOYSA-M,COC(=O)c1ccc([N+](=O)[O-])cc1C(=O)[O-],-2.0558,0.0,1,G1,224.14799999999997,-0.2551000000000002,48.7664,16.0,6.0,0.0,7.0,3.0,84.0,1.0,0.0,0.0,1.0,109.57000000000002,89.41002836697702,3.35771253075613,467.06705661543674
B-3328,"hydrocinnamic acid, .beta.-methoxy-","InChI=1S/C10H12O3/c1-13-9(7-10(11)12)8-5-3-2-4-6-8/h2-6,9H,7H2,1H3,(H,11,12)",HVLYJUCOMBTMTA-UHFFFAOYSA-N,COC(CC(=O)O)c1ccccc1,-1.6952,0.0,1,G1,180.203,1.8488,48.44480000000003,13.0,2.0,1.0,3.0,4.0,70.0,1.0,0.0,0.0,1.0,46.53,76.96047265883006,2.725185096108451,268.7581641533625
B-3385,"phthalic acid, 4-nitro-, 2-methyl ester","InChI=1S/C9H7NO6/c1-16-9(13)7-4-5(10(14)15)2-3-6(7)8(11)12/h2-4H,1H3,(H,11,12)/p-1",DBRYTMUUOGDANT-UHFFFAOYSA-M,COC(=O)c1cc([N+](=O)[O-])ccc1C(=O)[O-],-1.721,0.0,1,G1,224.14799999999997,-0.2551,48.7664,16.0,6.0,0.0,7.0,3.0,84.0,1.0,0.0,0.0,1.0,109.57000000000002,89.41002836697702,3.376107722718309,467.06705661543674
B-3404,"valeric acid, 4-(benzamido)-","InChI=1S/C12H15NO3/c1-9(7-8-11(14)15)13-12(16)10-5-3-2-4-6-10/h2-6,9H,7-8H2,1H3,(H,13,16)(H,14,15)",ZGBHFYITZDYZPR-UHFFFAOYSA-N,CC(CCC(=O)O)NC(=O)c1ccccc1,-1.6917,0.02585,2,G3,221.256,1.6697000000000002,60.24000000000003,16.0,2.0,2.0,4.0,5.0,86.0,1.0,0.0,0.0,1.0,66.4,94.2881959417682,2.4259171535978323,361.78643918639824
B-3406,"acetamide, 2-(benzoyloxy)-n-methyl-","InChI=1S/C10H11NO3/c1-11-9(12)7-14-10(13)8-5-3-2-4-6-8/h2-6H,7H2,1H3,(H,11,12)",ZWAHHEQQTJUTPW-UHFFFAOYSA-N,CNC(=O)COC(=O)c1ccccc1,-1.7178,0.0,1,G1,193.20200000000003,0.5893999999999995,50.791200000000025,14.0,3.0,1.0,4.0,3.0,74.0,1.0,0.0,0.0,1.0,55.4,81.87762319028586,2.4770888710720005,321.3988126104432
B-3407,"acetamide, 2-(benzoyloxy)-n-propyl-","InChI=1S/C12H15NO3/c1-2-8-13-11(14)9-16-12(15)10-6-4-3-5-7-10/h3-7H,2,8-9H2,1H3,(H,13,14)",OLCZSUFMDPGDIL-UHFFFAOYSA-N,CCCNC(=O)COC(=O)c1ccccc1,-2.5387,0.0,1,G1,221.256,1.3696,60.025200000000034,16.0,3.0,1.0,4.0,5.0,86.0,1.0,0.0,0.0,1.0,55.4,94.60750741907908,2.332341837261134,348.54132242058023
B-3408,"acetamide, 2-(benzoyloxy)-n-(1,1-dimethylethyl)-","InChI=1S/C13H17NO3/c1-13(2,3)14-11(15)9-17-12(16)10-7-5-4-6-8-10/h4-8H,9H2,1-3H3,(H,14,15)",NZNPHIKNHGRVLZ-UHFFFAOYSA-N,CC(C)(C)NC(=O)COC(=O)c1ccccc1,-2.8665,0.0,1,G1,235.283,1.7581,64.62020000000004,17.0,3.0,1.0,4.0,3.0,92.0,1.0,0.0,0.0,1.0,55.4,100.97244953347568,2.418285283136562,392.87564375578006
B-3409,"acetamide, 2-[[(benzoyloxy)acetyl]amino]-","InChI=1S/C11H12N2O4/c12-9(14)6-13-10(15)7-17-11(16)8-4-2-1-3-5-8/h1-5H,6-7H2,(H2,12,14)(H,13,15)",XYGUXAGVJDBSBP-UHFFFAOYSA-N,NC(=O)CNC(=O)COC(=O)c1ccccc1,-1.4983,0.0,1,G1,236.227,-0.5550999999999997,58.92860000000002,17.0,4.0,2.0,6.0,5.0,90.0,1.0,0.0,0.0,1.0,98.49,97.74397810173896,2.336451851293272,416.73942441782106
B-3410,"acetamide, 2-(benzoyloxy)-n,n-dimethyl-","InChI=1S/C11H13NO3/c1-12(2)10(13)8-15-11(14)9-6-4-3-5-7-9/h3-7H,8H2,1-2H3",WKIMLEWQZUKSJM-UHFFFAOYSA-N,CN(C)C(=O)COC(=O)c1ccccc1,-1.372,0.0,1,G1,207.229,0.9316,55.41850000000004,15.0,3.0,0.0,4.0,3.0,80.0,1.0,0.0,0.0,1.0,46.61,88.45253679127781,2.475823837439312,346.1104835583516
B-3411,"acetamide, 2-(benzoyloxy)-n,n-dipropyl-","InChI=1S/C15H21NO3/c1-3-10-16(11-4-2)14(17)12-19-15(18)13-8-6-5-7-9-13/h5-9H,3-4,10-12H2,1-2H3",COTRONQEHWUCRV-UHFFFAOYSA-N,CCCN(CCC)C(=O)COC(=O)c1ccccc1,-2.3791,0.0,1,G1,263.337,2.492000000000001,73.88650000000004,19.0,3.0,0.0,4.0,7.0,104.0,1.0,0.0,0.0,1.0,46.61,113.91230524886424,2.463454822910587,397.11153061598577
B-3412,"acetamide, 2-(benzoyloxy)-n,n-dibutyl-","InChI=1S/C17H25NO3/c1-3-5-12-18(13-6-4-2)16(19)14-21-17(20)15-10-8-7-9-11-15/h7-11H,3-6,12-14H2,1-2H3",ORAHATGHUWMRCM-UHFFFAOYSA-N,CCCCN(CCCC)C(=O)COC(=O)c1ccccc1,-3.5614,0.0,1,G1,291.39099999999996,3.2722000000000024,83.12050000000005,21.0,3.0,0.0,4.0,9.0,116.0,1.0,0.0,0.0,1.0,46.61,126.64218947765748,2.462570755217296,422.92117784826087
B-3413,"acetamide, 2-(benzoyloxy)-n,n-bis(2-propenyl)-","InChI=1S/C15H17NO3/c1-3-10-16(11-4-2)14(17)12-19-15(18)13-8-6-5-7-9-13/h3-9H,1-2,10-12H2",KIBXYDHXHWRNTP-UHFFFAOYSA-N,C=CCN(CC=C)C(=O)COC(=O)c1ccccc1,-2.5626,0.0,1,G1,259.30499999999995,2.044,73.69850000000004,19.0,3.0,0.0,4.0,7.0,100.0,1.0,0.0,0.0,1.0,46.61,112.53309918449574,2.506616797605034,443.7183079562083
B-3414,"glycine, n-[(benzoyloxy)acetyl]-n-methyl-","InChI=1S/C12H13NO5/c1-13(7-11(15)16)10(14)8-18-12(17)9-5-3-2-4-6-9/h2-6H,7-8H2,1H3,(H,15,16)",SHYSSTOSYAOGMS-UHFFFAOYSA-N,CN(CC(=O)O)C(=O)COC(=O)c1ccccc1,-2.254,0.0,1,G1,251.23799999999997,0.3864,61.99730000000003,18.0,4.0,1.0,6.0,5.0,96.0,1.0,0.0,0.0,1.0,83.91,103.7732347579142,2.4358372724104784,443.04080891735794
B-3419,"benzenesulfonamide, 4-[(2-hydroxyethyl)thio]-","InChI=1S/C8H11NO3S2/c9-14(11,12)8-3-1-7(2-4-8)13-6-5-10/h1-4,10H,5-6H2,(H2,9,11,12)",LTXDVFFEVZJDGT-UHFFFAOYSA-N,NS(=O)(=O)c1ccc(SCCO)cc1,-1.8239,0.0,1,G1,233.31399999999996,0.4184000000000002,55.62500000000002,14.0,4.0,2.0,6.0,4.0,78.0,1.0,0.0,0.0,1.0,80.39,87.17929771527925,2.791184180966809,385.5523482013285
B-3420,"benzenesulfonamide, 4-[(3-hydroxypropyl)thio]-","InChI=1S/C9H13NO3S2/c10-15(12,13)9-4-2-8(3-5-9)14-7-1-6-11/h2-5,11H,1,6-7H2,(H2,10,12,13)",BHBPVVOUUXIZBX-UHFFFAOYSA-N,NS(=O)(=O)c1ccc(SCCCO)cc1,-2.2472,0.0,1,G1,247.34099999999995,0.8085000000000002,60.242000000000026,15.0,4.0,2.0,6.0,5.0,84.0,1.0,0.0,0.0,1.0,80.39,93.54423982967586,2.648689461432445,399.87056283839553
B-3421,"benzenesulfonamide, 4-[(5-hydroxypentyl)thio]-","InChI=1S/C11H17NO3S2/c12-17(14,15)11-6-4-10(5-7-11)16-9-3-1-2-8-13/h4-7,13H,1-3,8-9H2,(H2,12,14,15)",FDORWDSKZBVQSQ-UHFFFAOYSA-N,NS(=O)(=O)c1ccc(SCCCCCO)cc1,-2.6618,0.0,1,G1,275.3949999999999,1.5887000000000002,69.47600000000003,17.0,4.0,2.0,6.0,7.0,96.0,1.0,0.0,0.0,1.0,80.39,106.27412405846908,2.4109714520866254,428.5346948664055
B-3444,"propanamide, 3-(benzoyloxy)-n,n-dimethyl-","InChI=1S/C12H15NO3/c1-13(2)11(14)8-9-16-12(15)10-6-4-3-5-7-10/h3-7H,8-9H2,1-2H3",IZIGQEAJOSUMEQ-UHFFFAOYSA-N,CN(C)C(=O)CCOC(=O)c1ccccc1,-1.0994,0.0,1,G1,221.256,1.3217,60.03550000000004,16.0,3.0,0.0,4.0,4.0,86.0,1.0,0.0,0.0,1.0,46.61,94.8174789056744,2.34348342325572,359.7864391863982
B-3445,"butanamide, 4-(benzoyloxy)-n,n-dimethyl-","InChI=1S/C13H17NO3/c1-14(2)12(15)9-6-10-17-13(16)11-7-4-3-5-8-11/h3-5,7-8H,6,9-10H2,1-2H3",FNROXVCRPXYLRT-UHFFFAOYSA-N,CN(C)C(=O)CCCOC(=O)c1ccccc1,-1.2286,0.0,1,G1,235.283,1.7117999999999998,64.65250000000005,17.0,3.0,0.0,4.0,5.0,92.0,1.0,0.0,0.0,1.0,46.61,101.18242102007102,2.2384022760037863,373.5107816340442
B-3446,"acetamide, n-acetyl-2-(benzoyloxy)-n-methyl-","InChI=1S/C12H13NO4/c1-9(14)13(2)11(15)8-17-12(16)10-6-4-3-5-7-10/h3-7H,8H2,1-2H3",JQUIGGQYRQVIIE-UHFFFAOYSA-N,CC(=O)N(C)C(=O)COC(=O)c1ccccc1,-2.8664,1.1832,2,G2,235.239,0.8482999999999998,60.175500000000035,17.0,4.0,0.0,5.0,3.0,90.0,1.0,0.0,0.0,1.0,63.68,98.9790010057182,2.4956690764140865,427.391586065928
B-3447,"acetamide, 2-(benzoyloxy)-n-(1-methylethyl)-","InChI=1S/C12H15NO3/c1-9(2)13-11(14)8-16-12(15)10-6-4-3-5-7-10/h3-7,9H,8H2,1-2H3,(H,13,14)",FUWATACATASMHP-UHFFFAOYSA-N,CC(C)NC(=O)COC(=O)c1ccccc1,-2.7321,0.0,1,G1,221.256,1.3679999999999997,60.003200000000035,16.0,3.0,1.0,4.0,4.0,86.0,1.0,0.0,0.0,1.0,55.4,94.60750741907908,2.3909218659614915,359.7864391863982
B-3448,"acetamide, 2-(benzoyloxy)-n-butyl-","InChI=1S/C13H17NO3/c1-2-3-9-14-12(15)10-17-13(16)11-7-5-4-6-8-11/h4-8H,2-3,9-10H2,1H3,(H,14,15)",FUKCEEDRHGCYHH-UHFFFAOYSA-N,CCCCNC(=O)COC(=O)c1ccccc1,-2.7588,0.0,1,G1,235.283,1.7596999999999998,64.64220000000003,17.0,3.0,1.0,4.0,6.0,92.0,1.0,0.0,0.0,1.0,55.4,100.9724495334757,2.264526480530372,362.1871411604737
B-3449,"acetamide, 2-(benzoyloxy)-n-hexyl-","InChI=1S/C15H21NO3/c1-2-3-4-8-11-16-14(17)12-19-15(18)13-9-6-5-7-10-13/h5-7,9-10H,2-4,8,11-12H2,1H3,(H,16,17)",ZTEWWPFYEDRRRL-UHFFFAOYSA-N,CCCCCCNC(=O)COC(=O)c1ccccc1,-3.902,0.0,1,G1,263.337,2.539900000000001,73.87620000000004,19.0,3.0,1.0,4.0,8.0,104.0,1.0,0.0,0.0,1.0,55.4,113.70233376226892,2.1454943955050303,389.6369770796329
B-3450,"propanamide, 2-[[(benzoyloxy)acetyl]amino]-","InChI=1S/C12H14N2O4/c1-8(11(13)16)14-10(15)7-18-12(17)9-5-3-2-4-6-9/h2-6,8H,7H2,1H3,(H2,13,16)(H,14,15)",GUNGCOIXSOZDCM-UHFFFAOYSA-N,CC(NC(=O)COC(=O)c1ccccc1)C(N)=O,-2.7172,0.0,1,G1,250.254,-0.1666000000000002,63.52360000000002,18.0,4.0,2.0,6.0,5.0,96.0,1.0,0.0,0.0,1.0,98.49,104.10892021613556,2.395000282404399,444.6504493917948
B-3454,"dl-lysine, n2-benzoyl-","InChI=1S/C13H18N2O3/c14-9-5-4-8-11(13(17)18)15-12(16)10-6-2-1-3-7-10/h1-3,6-7,11H,4-5,8-9,14H2,(H,15,16)(H,17,18)",IYHOIXNPULYXFO-UHFFFAOYSA-N,NCCCCC(NC(=O)c1ccccc1)C(=O)O,-2.2845,0.0,1,G1,250.298,0.9985999999999996,68.23740000000004,18.0,3.0,3.0,5.0,7.0,98.0,1.0,0.0,0.0,1.0,92.42,105.99302875317755,2.5545064679862284,392.48264694846
B-3459,"benzeneethanol, 4-hydroxy-3-nitro-","InChI=1S/C8H9NO4/c10-4-3-6-1-2-8(11)7(5-6)9(12)13/h1-2,5,10-11H,3-4H2",IPWLQQBKTBBLID-UHFFFAOYSA-N,O=[N+]([O-])c1cc(CCO)ccc1O,-1.1556,0.0,1,G1,183.163,0.8351999999999999,45.55100000000002,13.0,4.0,2.0,5.0,3.0,70.0,1.0,0.0,0.0,1.0,83.6,74.402730575182,3.0373108455333924,323.920107283953
B-3474,"3-p-anisidino-propane-1,2-diol","InChI=1S/C10H15NO3/c1-14-10-4-2-8(3-5-10)11-6-9(13)7-12/h2-5,9,11-13H,6-7H2,1H3",AZKRMADMLBGMOJ-UHFFFAOYSA-N,COc1ccc(NCC(O)CO)cc1,-0.295,0.0,1,G1,197.234,0.4602999999999998,54.57630000000003,14.0,4.0,3.0,4.0,5.0,78.0,1.0,0.0,0.0,1.0,61.72,83.14304649459037,2.43405983059297,260.5745502366502
B-3483,"phthalic acid, 3,4-dimethoxy-, 2-ethyl ester","InChI=1S/C12H14O6/c1-4-18-12(15)7-5-6-8(16-2)10(17-3)9(7)11(13)14/h5-6H,4H2,1-3H3,(H,13,14)/p-1",YSSRAFLMFRNXKL-UHFFFAOYSA-M,CCOC(=O)c1ccc(OC)c(OC)c1C(=O)[O-],-2.253,0.0,1,G1,253.22999999999993,0.244,59.83300000000003,18.0,6.0,0.0,6.0,5.0,98.0,1.0,0.0,0.0,1.0,84.89000000000001,104.0789694466808,3.436703793728783,465.8805941435618