ID,Name,InChI,InChIKey,SMILES,Solubility,SD,Occurrences,Group,MolWt,MolLogP,MolMR,HeavyAtomCount,NumHAcceptors,NumHDonors,NumHeteroatoms,NumRotatableBonds,NumValenceElectrons,NumAromaticRings,NumSaturatedRings,NumAliphaticRings,RingCount,TPSA,LabuteASA,BalabanJ,BertzCT
C-1916,dihydroequilin,"InChI=1S/C18H22O2/c1-18-9-8-14-13-5-3-12(19)10-11(13)2-4-15(14)16(18)6-7-17(18)20/h3-5,10,14,16-17,19-20H,2,6-9H2,1H3",NLLMJANWPUQQTA-UHFFFAOYSA-N,CC12CCC3C(=CCc4cc(O)ccc43)C1CCC2O,-4.4,0.0,1,G1,270.37199999999996,3.5293000000000023,78.70660000000004,20.0,2.0,2.0,2.0,0.0,106.0,1.0,2.0,3.0,4.0,40.46,119.69207950387636,1.7560945796748222,589.0810606278096
A-2049,"bis(1,2,2,6,6-pentamethylpiperidin-4-yl) 2-butyl-2-[(3,5-di-tert-butyl-4-hydroxyphenyl)methyl]propanedioate","InChI=1S/C42H72N2O5/c1-18-19-20-42(34(46)48-29-24-38(8,9)43(16)39(10,11)25-29,35(47)49-30-26-40(12,13)44(17)41(14,15)27-30)23-28-21-31(36(2,3)4)33(45)32(22-28)37(5,6)7/h21-22,29-30,45H,18-20,23-27H2,1-17H3",FLPKSBDJMLUTEX-UHFFFAOYSA-N,CCCCC(Cc1cc(C(C)(C)C)c(O)c(C(C)(C)C)c1)(C(=O)OC1CC(C)(C)N(C)C(C)(C)C1)C(=O)OC1CC(C)(C)N(C)C(C)(C)C1,-5.8357203688,0.1505149978500002,2,G3,685.047,9.095500000000005,201.23879999999917,49.0,7.0,1.0,7.0,9.0,280.0,1.0,2.0,2.0,3.0,79.31,299.4216926824204,2.1998993907087105,1232.7553186607138
A-5191,bis(pyridin-1-ium) [(oxidodioxochromio)oxy]chromiumoylolate,InChI=1S/2C5H5N.2Cr.2H2O.5O/c2*1-2-4-6-5-3-1;;;;;;;;;/h2*1-5H;;;2*1H2;;;;;/q;;2*+1;;;;;;;/p-2,RCBVKBFIWMOMHF-UHFFFAOYSA-L,[O]=[Cr](=[O])([OH])[O][Cr](=[O])(=[O])[OH].c1ccncc1.c1ccncc1,0.3990871293999999,0.0,1,G1,376.205,0.5006000000000002,56.74260000000003,21.0,7.0,2.0,11.0,2.0,116.0,2.0,0.0,0.0,2.0,143.75,124.58774423282485,2.933333310683333e-07,560.944310992934
B-2313,azacyclotetradecan-2-one,"InChI=1S/C13H25NO/c15-13-11-9-7-5-3-1-2-4-6-8-10-12-14-13/h1-12H2,(H,14,15)",OETISESXIXCPAD-UHFFFAOYSA-N,O=C1CCCCCCCCCCCCN1,-2.6260000000000003,0.0,1,G1,211.34899999999996,3.407300000000002,63.79670000000005,15.0,1.0,1.0,2.0,0.0,88.0,0.0,1.0,1.0,1.0,29.1,93.82410953071144,2.126499891372904,151.9188881091498
B-2018,"spiro[benzofuran-2(3h), 1'-[2]cyclohexene]-3,4'-","InChI=1S/C17H18O6/c1-9-5-10(18)6-14(22-4)17(9)16(19)15-12(21-3)7-11(20-2)8-13(15)23-17/h6-9H,5H2,1-4H3",QPCYNIYZPDJCMB-UHFFFAOYSA-N,COC1=CC(=O)CC(C)C12Oc1cc(OC)cc(OC)c1C2=O,-3.699,0.0,1,G1,318.32500000000005,2.1569000000000003,81.11550000000003,23.0,6.0,0.0,6.0,3.0,122.0,1.0,0.0,2.0,3.0,71.06,133.521726156732,2.1985713585727407,720.0389316296884
C-894,griseofulvin,"InChI=1S/C17H17ClO6/c1-8-5-9(19)6-12(23-4)17(8)16(20)13-10(21-2)7-11(22-3)14(18)15(13)24-17/h6-8H,5H2,1-4H3",DDUHZTYCFQRHIY-UHFFFAOYSA-N,COC1=CC(=O)CC(C)C12Oc1c(Cl)c(OC)cc(OC)c1C2=O,-3.97,0.5835981065767777,4,G4,352.7700000000001,2.8103000000000007,86.12550000000003,24.0,6.0,0.0,7.0,3.0,128.0,1.0,0.0,2.0,3.0,71.06,143.8249923836137,2.2581731710520927,768.8345393102227
F-858,"7-chloro-3'-ethoxy-4,6-dimethoxy-5'-methylspiro[1-benzofuran-2,4'-cyclohex-2-ene]-1',3-dione","InChI=1S/C18H19ClO6/c1-5-24-13-7-10(20)6-9(2)18(13)17(21)14-11(22-3)8-12(23-4)15(19)16(14)25-18/h7-9H,5-6H2,1-4H3",VHXBNOUUDLLFER-UHFFFAOYSA-N,CCOC1=CC(=O)CC(C)C12Oc1c(Cl)c(OC)cc(OC)c1C2=O,-5.0,0.0,1,G1,366.797,3.200400000000002,90.74250000000004,25.0,6.0,0.0,7.0,4.0,134.0,1.0,0.0,2.0,3.0,71.06,150.18993449801027,2.236202264880535,784.2612361491061
F-866,"7-chloro-3',6-diethoxy-4-methoxy-5'-methylspiro[1-benzofuran-2,4'-cyclohex-2-ene]-1',3-dione","InChI=1S/C19H21ClO6/c1-5-24-13-9-12(23-4)15-17(16(13)20)26-19(18(15)22)10(3)7-11(21)8-14(19)25-6-2/h8-10H,5-7H2,1-4H3",ANHLDWAKGVPKNR-UHFFFAOYSA-N,CCOC1=CC(=O)CC(C)C12Oc1c(Cl)c(OCC)cc(OC)c1C2=O,-4.7,0.0,1,G1,380.82400000000007,3.5905000000000022,95.35950000000004,26.0,6.0,0.0,7.0,5.0,140.0,1.0,0.0,2.0,3.0,71.06,156.5548766124069,2.211260245679707,799.7093511352905
F-867,"7-chloro-4,6-dimethoxy-5'-methyl-3'-propoxyspiro[1-benzofuran-2,4'-cyclohex-2-ene]-1',3-dione","InChI=1S/C19H21ClO6/c1-5-6-25-14-8-11(21)7-10(2)19(14)18(22)15-12(23-3)9-13(24-4)16(20)17(15)26-19/h8-10H,5-7H2,1-4H3",CFOHRWBARJOUIP-UHFFFAOYSA-N,CCCOC1=CC(=O)CC(C)C12Oc1c(Cl)c(OC)cc(OC)c1C2=O,-4.52,0.0,1,G1,380.82400000000007,3.5905000000000022,95.35950000000004,26.0,6.0,0.0,7.0,5.0,140.0,1.0,0.0,2.0,3.0,71.06,156.55487661240693,2.1947191041100265,799.7093511352905
F-878,"3'-butoxy-7-chloro-4,6-dimethoxy-5'-methylspiro[1-benzofuran-2,4'-cyclohex-2-ene]-1',3-dione","InChI=1S/C20H23ClO6/c1-5-6-7-26-15-9-12(22)8-11(2)20(15)19(23)16-13(24-3)10-14(25-4)17(21)18(16)27-20/h9-11H,5-8H2,1-4H3",VYKVCWHSRHNRJY-UHFFFAOYSA-N,CCCCOC1=CC(=O)CC(C)C12Oc1c(Cl)c(OC)cc(OC)c1C2=O,-4.7,0.0,1,G1,394.8510000000001,3.980600000000003,99.97650000000004,27.0,6.0,0.0,7.0,6.0,146.0,1.0,0.0,2.0,3.0,71.06,162.91981872680353,2.140416576289432,815.1802301028778
A-4218,"hexasodium 6,13-dichloro-3,10-bis({[2-({4-chloro-6-[(2,4-disulfonatophenyl)amino]-1,3,5-triazin-2-yl}amino)ethyl]amino})-5,12-dioxa-7,14-diazapentacene-4,11-disulfonate","InChI=1S/C40H30Cl4N14O20S6.6Na/c41-25-28-32(78-30-20(50-28)6-8-22(34(30)84(74,75)76)46-10-12-48-38-54-36(44)56-40(58-38)52-18-4-2-16(80(62,63)64)14-24(18)82(68,69)70)26(42)27-31(25)77-29-19(49-27)5-7-21(33(29)83(71,72)73)45-9-11-47-37-53-35(43)55-39(57-37)51-17-3-1-15(79(59,60)61)13-23(17)81(65,66)67;;;;;;/h1-8,13-14,45-46H,9-12H2,(H,59,60,61)(H,62,63,64)(H,65,66,67)(H,68,69,70)(H,71,72,73)(H,74,75,76)(H2,47,51,53,55,57)(H2,48,52,54,56,58);;;;;;/q;6*+1/p-6",LNXCMNGXHAOOOW-UHFFFAOYSA-H,O=S(=O)([O-])c1ccc(Nc2nc(Cl)nc(NCCNc3ccc4c(c3S(=O)(=O)[O-])Oc3c(Cl)c5c(c(Cl)c3=N4)Oc3c(ccc(NCCNc4nc(Cl)nc(Nc6ccc(S(=O)(=O)[O-])cc6S(=O)(=O)[O-])n4)c3S(=O)(=O)[O-])N=5)n2)c(S(=O)(=O)[O-])c1.[Na+].[Na+].[Na+].[Na+].[Na+].[Na+],-0.8795540191,0.0,1,G1,1492.8639999999998,-15.231999999999957,281.9874000000002,90.0,34.0,6.0,50.0,20.0,444.0,7.0,0.0,2.0,9.0,535.9000000000001,661.3221496285123,3.5266609518152717e-06,4561.80796290683
B-773,2-phenylcinchoninic acid,"InChI=1S/C16H11NO2/c18-16(19)13-10-15(11-6-2-1-3-7-11)17-14-9-5-4-8-12(13)14/h1-10H,(H,18,19)",YTRMTPPVNRALON-UHFFFAOYSA-N,O=C(O)c1cc(-c2ccccc2)nc2ccccc12,-3.1926,0.0,1,G1,249.26900000000003,3.6000000000000014,74.13830000000003,19.0,2.0,1.0,3.0,2.0,92.0,3.0,0.0,0.0,3.0,50.19,109.71050780487911,2.309670859666423,751.0486079861877
B-3232,quizalofop,"InChI=1S/C17H13ClN2O4/c1-10(17(21)22)23-12-3-5-13(6-4-12)24-16-9-19-15-8-11(18)2-7-14(15)20-16/h2-10H,1H3,(H,21,22)",ABOOPXYCKNFDNJ-UHFFFAOYSA-N,CC(Oc1ccc(Oc2cnc3cc(Cl)ccc3n2)cc1)C(=O)O,-6.0604,0.0,1,G1,344.7540000000001,3.9274000000000022,88.78980000000004,24.0,5.0,1.0,7.0,5.0,122.0,3.0,0.0,0.0,3.0,81.53999999999999,142.19039670051427,1.7364255860632796,883.3978671069486
B-3377,quizalofop-p-ethyl,"InChI=1S/C19H17ClN2O4/c1-3-24-19(23)12(2)25-14-5-7-15(8-6-14)26-18-11-21-17-10-13(20)4-9-16(17)22-18/h4-12H,3H2,1-2H3/t12-/m1/s1",OSUHJPCHFDQAIT-GFCCVEGCSA-N,CCOC(=O)[C@@H](C)Oc1ccc(Oc2cnc3cc(Cl)ccc3n2)cc1,-5.9694,0.0,1,G1,372.8080000000001,4.4059000000000035,97.78700000000003,26.0,6.0,0.0,7.0,6.0,134.0,3.0,0.0,0.0,3.0,70.54,155.2395924066183,1.6714281501040391,915.0611129403958
B-3428,propaquizafop,"InChI=1S/C22H22ClN3O5/c1-14(2)26-29-11-10-28-22(27)15(3)30-17-5-7-18(8-6-17)31-21-13-24-20-12-16(23)4-9-19(20)25-21/h4-9,12-13,15H,10-11H2,1-3H3",FROBCXTULYFHEJ-UHFFFAOYSA-N,CC(C)=NOCCOC(=O)C(C)Oc1ccc(Oc2cnc3cc(Cl)ccc3n2)cc1,-5.8479,0.0,1,G1,443.8870000000003,4.798400000000004,116.84800000000004,31.0,8.0,0.0,9.0,9.0,162.0,3.0,0.0,0.0,3.0,92.13,184.29732496465323,1.5068650772429886,1068.4343643117886
C-1507,(r)-quizalofop-ethyl,"InChI=1S/C19H17ClN2O4/c1-3-24-19(23)12(2)25-14-5-7-15(8-6-14)26-18-11-21-17-10-13(20)4-9-16(17)22-18/h4-12H,3H2,1-2H3",OSUHJPCHFDQAIT-UHFFFAOYSA-N,CCOC(=O)C(C)Oc1ccc(Oc2cnc3cc(Cl)ccc3n2)cc1,-5.97,0.0622000000000002,2,G3,372.8080000000001,4.4059000000000035,97.78700000000002,26.0,6.0,0.0,7.0,6.0,134.0,3.0,0.0,0.0,3.0,70.54,155.2395924066183,1.6714281501040391,915.0611129403958
C-1014,benzo[e]pyrene,InChI=1S/C20H12/c1-2-8-16-15(7-1)17-9-3-5-13-11-12-14-6-4-10-18(16)20(14)19(13)17/h1-12H,TXVHTIQJNYSSKO-UHFFFAOYSA-N,c1ccc2c(c1)c1cccc3ccc4cccc2c4c31,-7.66,0.0829065873270768,3,G5,252.31599999999997,5.737200000000003,87.65200000000004,20.0,0.0,0.0,0.0,0.0,92.0,5.0,0.0,0.0,5.0,0.0,116.13708612657337,2.329150586973285,998.0049697160237
A-594,strontium 4-[(4-chloro-5-methyl-2-sulphonatophenyl)azo]-3-hydroxy-2-naphthoate (1:1),"InChI=1S/C18H13ClN2O6S.Sr/c1-9-6-14(15(8-13(9)19)28(25,26)27)20-21-16-11-5-3-2-4-10(11)7-12(17(16)22)18(23)24;/h2-8,20H,1H3,(H,23,24)(H,25,26,27);/q;+2/p-2/b21-16+;",ZZUKBDPLHIIUFR-JEBHESKQSA-L,Cc1cc(N/N=C2/C(=O)C(C(=O)[O-])=Cc3ccccc32)c(S(=O)(=O)[O-])cc1Cl.[Sr+2],-3.9441003714,1.7921656122000005,2,G2,506.4340000000002,0.7039199999999999,104.4989,29.0,8.0,1.0,11.0,4.0,144.0,2.0,0.0,1.0,3.0,138.79,207.8352124899284,2.999996751336934e-06,1190.8326565222303
A-1494,disodium 6-hydroxy-5-[(E)-2-(4-sulfonatophenyl)diazen-1-yl]naphthalene-2-sulfonate,"InChI=1S/C16H12N2O7S2.2Na/c19-15-8-1-10-9-13(27(23,24)25)6-7-14(10)16(15)18-17-11-2-4-12(5-3-11)26(20,21)22;;/h1-9,17H,(H,20,21,22)(H,23,24,25);;/q;2*+1/p-2/b18-16+;;",TXVRKNUZLYFDTJ-DDVLFWKVSA-L,O=C1C=Cc2cc(S(=O)(=O)[O-])ccc2/C1=N\Nc1ccc(S(=O)(=O)[O-])cc1.[Na+].[Na+],-1.3767469152,0.0,1,G1,452.3770000000002,-5.0850999999999935,93.0111,29.0,9.0,1.0,13.0,4.0,140.0,2.0,0.0,1.0,3.0,155.86,210.91374565268603,2.10249881994235e-06,1206.3294287940312
A-1534,"disodium (5E)-5-[2-(2-methoxy-5-methyl-4-sulfonatophenyl)hydrazin-1-ylidene]-6-oxo-5,6-dihydronaphthalene-2-sulfonate","InChI=1S/C18H16N2O8S2.2Na/c1-10-7-14(16(28-2)9-17(10)30(25,26)27)19-20-18-13-5-4-12(29(22,23)24)8-11(13)3-6-15(18)21;;/h3-9,19H,1-2H3,(H,22,23,24)(H,25,26,27);;/q;2*+1/p-2/b20-18+;;",POXPUHKJGLHZEM-VIPPSAFOSA-L,COc1cc(S(=O)(=O)[O-])c(C)cc1N/N=C1/C(=O)C=Cc2cc(S(=O)(=O)[O-])ccc21.[Na+].[Na+],-0.4405855136,0.04357508785,2,G3,496.43000000000023,-4.768079999999992,104.3001,32.0,10.0,1.0,14.0,5.0,158.0,2.0,0.0,1.0,3.0,165.08999999999995,228.75717511098617,2.559998350601092e-06,1336.9886313690663
A-2567,barium(2+) ion 4-[(E)-2-(5-chloro-4-methyl-2-sulfonatophenyl)diazen-1-yl]-3-hydroxynaphthalene-2-carboxylate,"InChI=1S/C18H13ClN2O6S.Ba/c1-9-6-15(28(25,26)27)14(8-13(9)19)20-21-16-11-5-3-2-4-10(11)7-12(17(16)22)18(23)24;/h2-8,20H,1H3,(H,23,24)(H,25,26,27);/q;+2/p-2/b21-16+;",TTXAKIMEQNUACJ-JEBHESKQSA-L,Cc1cc(S(=O)(=O)[O-])c(N/N=C2/C(=O)C(C(=O)[O-])=Cc3ccccc32)cc1Cl.[Ba+2],-5.745185694400001,0.80102999565,2,G2,556.1420000000003,0.7039199999999999,104.4989,29.0,8.0,1.0,11.0,4.0,144.0,2.0,0.0,1.0,3.0,138.79,211.02335726345908,2.9999967513369343e-06,1190.8326565222303
A-2977,sodium 4-[(2-hydroxy-1-naphthyl)diazenyl]-3-methylbenzenesulfonate,"InChI=1S/C17H14N2O4S.Na/c1-11-10-13(24(21,22)23)7-8-15(11)18-19-17-14-5-3-2-4-12(14)6-9-16(17)20;/h2-10,18H,1H3,(H,21,22,23);/q;+1/p-1/b19-17+;",SIHMAENIPOJURU-ZJSKVYKZSA-M,Cc1cc(S(=O)(=O)[O-])ccc1N/N=C1/C(=O)C=Cc2ccccc21.[Na+],-0.4366004304,0.0,1,G1,364.3580000000001,-0.6847800000000002,89.78490000000002,25.0,6.0,1.0,8.0,3.0,122.0,2.0,0.0,1.0,3.0,98.66,167.23665213433006,2.2533313199240675e-06,997.4574817797732
D-1635,proscillaridin,"InChI=1S/C30H42O8/c1-16-24(32)25(33)26(34)27(37-16)38-19-8-11-28(2)18(14-19)5-6-22-21(28)9-12-29(3)20(10-13-30(22,29)35)17-4-7-23(31)36-15-17/h4,7,14-16,19-22,24-27,32-35H,5-6,8-13H2,1-3H3/t16?,19-,20+,21-,22+,24?,25?,26?,27?,28-,29+,30-/m0/s1",MYEJFUXQJGHEQK-OWBILYANSA-N,CC1OC(O[C@@H]2C=C3CC[C@@H]4[C@H](CC[C@]5(C)[C@@H](c6ccc(=O)oc6)CC[C@]45O)[C@@]3(C)CC2)C(O)C(O)C1O,-3.955,0.0,1,G1,530.6580000000004,3.013800000000002,138.11020000000002,38.0,8.0,4.0,8.0,3.0,210.0,1.0,4.0,5.0,6.0,129.59,223.20656157143236,1.2114711192059808,1126.8120625446045
B-1174,nifuradene,"InChI=1S/C8H8N4O4/c13-8-9-3-4-11(8)10-5-6-1-2-7(16-6)12(14)15/h1-2,5H,3-4H2,(H,9,13)/b10-5+",VSVAVMVWTLLTCH-BJMVGYQFSA-N,O=C1NCCN1/N=C/c1ccc([N+](=O)[O-])o1,-3.3572,0.0,1,G1,224.17599999999996,0.5468999999999999,53.061100000000025,16.0,5.0,1.0,8.0,3.0,84.0,1.0,1.0,1.0,2.0,100.98,89.66932187008109,2.0507091679266773,452.6457168551664
B-2210,"2(1h)-azecinone, octahydro-","InChI=1S/C9H17NO/c11-9-7-5-3-1-2-4-6-8-10-9/h1-8H2,(H,10,11)",KBLFLMTZLPQGIF-UHFFFAOYSA-N,O=C1CCCCCCCCN1,-1.0737,0.0,1,G1,155.241,1.8469,45.32870000000002,11.0,1.0,1.0,2.0,0.0,64.0,0.0,1.0,1.0,1.0,29.1,68.36434107312499,2.168489511729277,110.73114066028502
B-3044,fluridone,"InChI=1S/C19H14F3NO/c1-23-11-16(13-6-3-2-4-7-13)18(24)17(12-23)14-8-5-9-15(10-14)19(20,21)22/h2-12H,1H3",YWBVHLJPRPCRSD-UHFFFAOYSA-N,Cn1cc(-c2ccccc2)c(=O)c(-c2cccc(C(F)(F)F)c2)c1,-4.4384,0.0,1,G1,329.32099999999997,4.738100000000002,87.55700000000004,24.0,2.0,0.0,5.0,2.0,122.0,3.0,0.0,0.0,3.0,22.0,136.36322353678253,2.201546195947067,927.3322048447552
A-3771,"tetrasodium 2,2'-ethene-1,2-diylbis[5-({4-morpholin-4-yl-6-[(4-sulfonatophenyl)amino]-1,3,5-triazin-2-yl}amino)benzenesulfonate]","InChI=1S/C28H29N7O10S3.C14H17N5O4S.4Na/c1-29-21-6-4-18(24(16-21)47(39,40)41)2-3-19-5-7-22(17-25(19)48(42,43)44)31-27-32-26(33-28(34-27)35-12-14-45-15-13-35)30-20-8-10-23(11-9-20)46(36,37)38;1-10-15-13(18-14(16-10)19-6-8-23-9-7-19)17-11-2-4-12(5-3-11)24(20,21)22;;;;/h2-11,16-17,29H,12-15H2,1H3,(H,36,37,38)(H,39,40,41)(H,42,43,44)(H2,30,31,32,33,34);2-5H,6-9H2,1H3,(H,20,21,22)(H,15,16,17,18);;;;/p-4/b3-2+;;;;;",XQESDAXKAMZHMR-YWURNZKTSA-J,CNc1ccc(/C=C/c2ccc(Nc3nc(Nc4ccc(S(=O)(=O)[O-])cc4)nc(N4CCOCC4)n3)cc2S(=O)(=O)[O-])c(S(=O)(=O)[O-])c1.Cc1nc(Nc2ccc(S(=O)(=O)[O-])cc2)nc(N2CCOCC2)n1.[Na].[Na].[Na].[Na],-0.4843358104999999,0.0,1,G1,1159.0960000000002,1.260920000000003,279.4146000000001,76.0,26.0,4.0,34.0,15.0,386.0,6.0,2.0,2.0,8.0,379.19999999999993,526.8329822874045,4.596428144482658e-07,3440.327365900523
B-2427,Dibenzo-18-crown-6,"InChI=1S/C20H24O6/c1-2-6-18-17(5-1)23-13-9-21-11-15-25-19-7-3-4-8-20(19)26-16-12-22-10-14-24-18/h1-8H,9-16H2",YSSSPARMOAYJTE-UHFFFAOYSA-N,c1ccc2c(c1)OCCOCCOc1ccccc1OCCOCCO2,-4.6935,0.0,1,G1,360.40600000000006,2.948800000000001,96.50200000000004,26.0,6.0,0.0,6.0,0.0,140.0,2.0,0.0,1.0,3.0,55.38000000000001,153.08347446424597,1.558694870332623,548.7545953273558
A-1096,"5-[(4-chloro-2-nitrophenyl)diazenyl]-1-ethyl-6-hydroxy-4-methyl-2-oxo-1,2-dihydropyridine-3-carbonitrile","InChI=1S/C15H12ClN5O4/c1-3-20-14(22)10(7-17)8(2)13(15(20)23)19-18-11-5-4-9(16)6-12(11)21(24)25/h4-6,18H,3H2,1-2H3/b19-13+",PJLZYPHMHUHUMN-CPNJWEJPSA-N,CCN1C(=O)C(C#N)=C(C)/C(=N\Nc2ccc(Cl)cc2[N+](=O)[O-])C1=O,-4.96733793,0.8613310350000001,2,G2,361.7450000000002,2.24488,89.87110000000003,25.0,7.0,1.0,10.0,4.0,128.0,1.0,0.0,1.0,2.0,128.7,146.8674681541972,2.489053844020201,884.3981770720476
A-2739,"5-[(E)-2-(3,4-dichlorophenyl)diazen-1-yl]-6-hydroxy-1,4-dimethyl-2-oxo-1,2-dihydropyridine-3-carbonitrile","InChI=1S/C14H10Cl2N4O2/c1-7-9(6-17)13(21)20(2)14(22)12(7)19-18-8-3-4-10(15)11(16)5-8/h3-5,18H,1-2H3/b19-12+",XJQKXIISBODNEJ-XDHOZWIPSA-N,CC1=C(C#N)C(=O)N(C)C(=O)/C1=N/Nc1ccc(Cl)c(Cl)c1,-6.9257837823,0.0,1,G1,337.16600000000017,2.5999800000000004,83.60970000000002,22.0,5.0,1.0,8.0,2.0,112.0,1.0,0.0,1.0,2.0,85.56,136.15281654418246,2.3908503104292658,777.5377831362407
A-4353,decasodium 2-[(E)-2-{2-sulfonato-4-[(E)-2-{3-sulfonato-4-[(E)-2-{2-sulfonato-4-[(E)-2-{4-[(E)-2-(4-sulfonatophenyl)diazen-1-yl]phenyl}diazen-1-yl]phenyl}ethenyl]phenyl}diazen-1-yl]phenyl}ethenyl]-5-[(E)-2-{4-[(E)-2-(4-sulfonatophenyl)diazen-1-yl]phenyl}diazen-1-yl]benzene-1-sulfonate 2-[(E)-2-{2-sulfonato-4-[(E)-2-{4-[(E)-2-(4-sulfonatophenyl)diazen-1-yl]phenyl}diazen-1-yl]phenyl}ethenyl]-5-[(E)-2-{4-[(E)-2-(4-sulfonatophenyl)diazen-1-yl]phenyl}diazen-1-yl]benzene-1-sulfonate,"InChI=1S/C52H38N10O18S6.C38H28N8O12S4.10Na/c63-81(64,65)47-25-21-41(22-26-47)55-53-37-13-17-39(18-14-37)57-59-43-9-5-33(49(29-43)83(69,70)71)1-3-35-7-11-45(31-51(35)85(75,76)77)61-62-46-12-8-36(52(32-46)86(78,79)80)4-2-34-6-10-44(30-50(34)84(72,73)74)60-58-40-19-15-38(16-20-40)54-56-42-23-27-48(28-24-42)82(66,67)68;47-59(48,49)35-19-15-31(16-20-35)41-39-27-7-11-29(12-8-27)43-45-33-5-3-25(37(23-33)61(53,54)55)1-2-26-4-6-34(24-38(26)62(56,57)58)46-44-30-13-9-28(10-14-30)40-42-32-17-21-36(22-18-32)60(50,51)52;;;;;;;;;;/h1-32H,(H,63,64,65)(H,66,67,68)(H,69,70,71)(H,72,73,74)(H,75,76,77)(H,78,79,80);1-24H,(H,47,48,49)(H,50,51,52)(H,53,54,55)(H,56,57,58);;;;;;;;;;/q;;10*+1/p-10/b3-1+,4-2+,55-53?,56-54?,59-57?,60-58?,62-61?;2-1+,41-39?,42-40?,45-43?,46-44?;;;;;;;;;;",MVVIVTYJFSLIBC-QISMBRTESA-D,O=S(=O)([O-])c1ccc(N=Nc2ccc(N=Nc3ccc(/C=C/c4ccc(N=Nc5ccc(/C=C/c6ccc(N=Nc7ccc(N=Nc8ccc(S(=O)(=O)[O-])cc8)cc7)cc6S(=O)(=O)[O-])c(S(=O)(=O)[O-])c5)cc4S(=O)(=O)[O-])c(S(=O)(=O)[O-])c3)cc2)cc1.O=S(=O)([O-])c1ccc(N=Nc2ccc(N=Nc3ccc(/C=C/c4ccc(N=Nc5ccc(N=Nc6ccc(S(=O)(=O)[O-])cc6)cc5)cc4S(=O)(=O)[O-])c(S(=O)(=O)[O-])c3)cc2)cc1.[Na+].[Na+].[Na+].[Na+].[Na+].[Na+].[Na+].[Na+].[Na+].[Na+],-1.2315456851,0.0,1,G1,2420.103999999997,-9.29600000000004,514.1880000000015,158.0,48.0,0.0,68.0,34.0,756.0,14.0,0.0,0.0,14.0,794.4800000000002,1124.7416594696144,7.958332397570939e-07,8713.637497227035
B-867,benzo(b)fluoranthene,InChI=1S/C20H12/c1-2-7-14-13(6-1)12-19-16-9-4-3-8-15(16)18-11-5-10-17(14)20(18)19/h1-12H,FTOVXSOBNPWTSH-UHFFFAOYSA-N,c1ccc2c(c1)-c1cccc3c1c-2cc1ccccc13,-8.2259,0.0,1,G1,252.31599999999997,5.640400000000003,85.88400000000003,20.0,0.0,0.0,0.0,0.0,92.0,4.0,0.0,1.0,5.0,0.0,116.8459952355022,2.120569654932486,993.1157323868964
A-5485,Acid Black 52,"InChI=1S/3C20H13N3O7S.2Cr.2Na/c3*24-16-8-5-11-3-1-2-4-13(11)19(16)21-22-20-14-7-6-12(23(26)27)9-15(14)18(10-17(20)25)31(28,29)30;;;;/h3*1-10,21,24H,(H,28,29,30);;;;/q;;;;;2*+1/p-2/b3*22-20+;;;;",YCNSFOJOGIRLCD-XGVRSJHNSA-L,O=C1C=C(S(=O)(=O)O)c2cc([N+](=O)[O-])ccc2/C1=N\Nc1c(O)ccc2ccccc12.O=C1C=C(S(=O)(=O)[O-])c2cc([N+](=O)[O-])ccc2/C1=N\Nc1c(O)ccc2ccccc12.O=C1C=C(S(=O)(=O)[O-])c2cc([N+](=O)[O-])ccc2/C1=N\Nc1c(O)ccc2ccccc12.[Cr].[Cr].[Na+].[Na+],-5.1661846252,0.0,1,G1,1466.1710000000005,2.5614000000000043,336.5017000000005,97.0,26.0,7.0,37.0,12.0,480.0,9.0,0.0,3.0,12.0,483.25999999999993,611.5984229205474,2.2519480085038885e-07,4880.082404970176
A-1555,calcium bis(3-nitro-4-{[2-oxo-1-(phenylcarbamoyl)propyl]diazenyl}benzenesulfonate),"InChI=1S/2C16H14N4O7S.Ca/c2*1-10(21)15(16(22)17-11-5-3-2-4-6-11)19-18-13-8-7-12(28(25,26)27)9-14(13)20(23)24;/h2*2-9,15H,1H3,(H,17,22)(H,25,26,27);/q;;+2/p-2",VWDVUHHOWAILLC-UHFFFAOYSA-L,CC(=O)C(N=Nc1ccc(S(=O)(=O)[O-])cc1[N+](=O)[O-])C(=O)Nc1ccccc1.CC(=O)C(N=Nc1ccc(S(=O)(=O)[O-])cc1[N+](=O)[O-])C(=O)Nc1ccccc1.[Ca+2],-4.6745621224,0.0,1,G1,850.8140000000001,3.977000000000002,195.9865999999997,57.0,18.0,2.0,25.0,14.0,292.0,4.0,0.0,0.0,4.0,342.4599999999999,351.8464137230654,3.866666500781616e-07,2282.097609387878
F-81,phenothiazin-3-one,InChI=1S/C12H7NOS/c14-8-5-6-10-12(7-8)15-11-4-2-1-3-9(11)13-10/h1-7H,YKGCCFHSXQHWIG-UHFFFAOYSA-N,O=c1ccc2nc3ccccc3sc-2c1,-3.72,0.0,1,G1,213.261,2.761300000000001,62.51200000000002,15.0,3.0,0.0,3.0,0.0,72.0,1.0,0.0,2.0,3.0,29.96,90.18120764876576,2.4916469171013595,659.1254784392335
C-1016,trimazosin,"InChI=1S/C20H29N5O6/c1-20(2,27)11-31-19(26)25-8-6-24(7-9-25)18-22-14-12(17(21)23-18)10-13(28-3)15(29-4)16(14)30-5/h10,27H,6-9,11H2,1-5H3,(H2,21,22,23)",YNZXWQJZEDLQEG-UHFFFAOYSA-N,COc1cc2c(N)nc(N3CCN(C(=O)OCC(C)(C)O)CC3)nc2c(OC)c1OC,-3.64,0.0,1,G1,435.48100000000034,1.2672999999999996,115.03820000000005,31.0,10.0,2.0,11.0,6.0,170.0,2.0,1.0,1.0,3.0,132.5,180.195332640042,1.8199711780051284,953.45156625816
B-1481,1-methyl uric acid,"InChI=1S/C6H6N4O3/c1-10-4(11)2-3(9-6(10)13)8-5(12)7-2/h1H3,(H,9,13)(H2,7,8,12)",QFDRTQONISXGJA-UHFFFAOYSA-N,Cn1c(=O)[nH]c2[nH]c(=O)[nH]c2c1=O,-1.5614,0.0,1,G1,182.139,-1.7568,44.781099999999995,13.0,4.0,3.0,7.0,0.0,68.0,2.0,0.0,0.0,2.0,103.51,70.04065191620926,3.1928379794973214,625.592387259088
B-1847,"1h-purine-2,6,8(3h)-trione, 7,9-dihydro-1,3,7,9-",InChI=1S/C9H12N4O3/c1-10-5-6(11(2)8(10)15)12(3)9(16)13(4)7(5)14/h1-4H3,QGDOQULISIQFHQ-UHFFFAOYSA-N,Cn1c(=O)c2c(n(C)c1=O)n(C)c(=O)n2C,-0.9527,0.0,1,G1,224.21999999999997,-1.725599999999999,58.64200000000002,16.0,7.0,0.0,7.0,0.0,86.0,2.0,0.0,0.0,2.0,70.93,89.76539271918503,3.363889360790429,756.1130205486448