ID,Name,InChI,InChIKey,SMILES,Solubility,SD,Occurrences,Group,MolWt,MolLogP,MolMR,HeavyAtomCount,NumHAcceptors,NumHDonors,NumHeteroatoms,NumRotatableBonds,NumValenceElectrons,NumAromaticRings,NumSaturatedRings,NumAliphaticRings,RingCount,TPSA,LabuteASA,BalabanJ,BertzCT
A-4821,1-methyl-4-nitrobenzene,"InChI=1S/C7H7NO2/c1-6-2-4-7(5-3-6)8(9)10/h2-5H,1H3",ZPTVNYMJQHSSEA-UHFFFAOYSA-N,Cc1ccc([N+](=O)[O-])cc1,-2.5149437885,0.0462467666465192,3,G5,137.138,1.90322,37.83340000000002,10.0,2.0,0.0,3.0,1.0,52.0,1.0,0.0,0.0,1.0,43.14,58.44932095639337,3.003400684579818,240.2879489264805
A-4822,2-methoxy-4-(prop-2-en-1-yl)phenyl acetate,"InChI=1S/C12H14O3/c1-4-5-10-6-7-11(15-9(2)13)12(8-10)14-3/h4,6-8H,1,5H2,2-3H3",SCCDQYPEOIRVGX-UHFFFAOYSA-N,C=CCc1ccc(OC(C)=O)c(OC)c1,-2.7015911491000004,0.0,1,G1,206.241,2.349,58.20400000000003,15.0,3.0,0.0,3.0,4.0,80.0,1.0,0.0,0.0,1.0,35.53,89.32006533274988,2.970500894861653,369.130023116199
A-4829,5-chloro-2-nitrophenol,"InChI=1S/C6H4ClNO3/c7-4-1-2-5(8(10)11)6(9)3-4/h1-3,9H",MZDBQSFPAMTTIS-UHFFFAOYSA-N,O=[N+]([O-])c1ccc(Cl)cc1O,-2.6373771386,0.0,1,G1,173.55499999999998,1.9538,39.771200000000015,11.0,3.0,1.0,5.0,1.0,58.0,1.0,0.0,0.0,1.0,63.37,67.18187882107445,3.1960696621259204,299.8789117242989
A-4830,chlorobenzene,InChI=1S/C6H5Cl/c7-6-4-2-1-3-5-6/h1-5H,MVPPADPHJFYWMZ-UHFFFAOYSA-N,Clc1ccccc1,-2.4493202347,0.1325591968400322,8,G5,112.55899999999995,2.34,31.452,7.0,0.0,0.0,1.0,0.0,36.0,1.0,0.0,0.0,1.0,0.0,47.73466934637863,3.0214653097240864,134.10736969541455
A-4835,3-methyl-5-phenylpentan-1-ol,"InChI=1S/C12H18O/c1-11(9-10-13)7-8-12-5-3-2-4-6-12/h2-6,11,13H,7-10H2,1H3",OXYRENDGHPGWKV-UHFFFAOYSA-N,CC(CCO)CCc1ccccc1,-2.6600258381,0.0,1,G1,178.275,2.6377000000000006,55.629800000000046,13.0,1.0,1.0,1.0,5.0,72.0,1.0,0.0,0.0,1.0,20.23,80.41528955807264,2.2668818143040608,217.8259028288588
A-4842,2-[(4-methyl-2-nitrophenyl)amino]ethan-1-ol,"InChI=1S/C9H12N2O3/c1-7-2-3-8(10-4-5-12)9(6-7)11(13)14/h2-3,6,10,12H,4-5H2,1H3",SCZQUWZLEIYDBD-UHFFFAOYSA-N,Cc1ccc(NCCO)c([N+](=O)[O-])c1,-2.7474051676,0.0,1,G1,196.206,1.3074199999999998,53.40890000000002,14.0,4.0,2.0,5.0,4.0,76.0,1.0,0.0,0.0,1.0,75.4,81.52330112099062,2.9603825880309396,338.828993542009
A-4889,2-phenoxyethyl 2-methylpropanoate,"InChI=1S/C12H16O3/c1-10(2)12(13)15-9-8-14-11-6-4-3-5-7-11/h3-7,10H,8-9H2,1-2H3",MJTPMXWJHPOWGH-UHFFFAOYSA-N,CC(C)C(=O)OCCOc1ccccc1,-3.0263435366,0.0,1,G1,208.257,2.2646000000000006,57.73400000000004,15.0,3.0,0.0,3.0,5.0,82.0,1.0,0.0,0.0,1.0,35.53,90.00966836493414,2.1506208306773735,292.9953583850857
A-4894,2-hydroxy-4-methylbenzamide,"InChI=1S/C8H9NO2/c1-5-2-3-6(8(9)11)7(10)4-5/h2-4,10H,1H3,(H2,9,11)",OLEJYVBTZPUQDX-UHFFFAOYSA-N,Cc1ccc(C(N)=O)c(O)c1,-2.9170001587,0.0,1,G1,151.16500000000002,0.79952,41.36170000000001,11.0,2.0,2.0,3.0,1.0,58.0,1.0,0.0,0.0,1.0,63.32000000000001,64.45693389754267,3.1960696621259195,294.14357423078934
A-4899,2-benzyl-2-methylbut-3-enenitrile,"InChI=1S/C12H13N/c1-3-12(2,10-13)9-11-7-5-4-6-8-11/h3-8H,1,9H2,2H3",UKLOORXNVRHFRM-UHFFFAOYSA-N,C=CC(C)(C#N)Cc1ccccc1,-3.0006167172,0.0170878089999999,2,G3,171.24299999999997,2.944980000000001,54.06300000000003,13.0,1.0,0.0,1.0,3.0,66.0,1.0,0.0,0.0,1.0,23.79,79.32403245516107,2.8080878040266035,320.72775522887986
A-4923,"5-bromo-1,2,3-trifluorobenzene",InChI=1S/C6H2BrF3/c7-3-1-4(8)6(10)5(9)2-3/h1-2H,HKJCELUUIFFSIN-UHFFFAOYSA-N,Fc1cc(Br)cc(F)c1F,-3.2102979357,0.0,1,G1,210.97999999999996,2.8664000000000005,34.016000000000005,10.0,0.0,0.0,4.0,0.0,54.0,1.0,0.0,0.0,1.0,0.0,63.79555693391703,3.3105328747224068,236.16499587006643
A-4930,"2-tert-butyl-4,6-dimethylphenol","InChI=1S/C12H18O/c1-8-6-9(2)11(13)10(7-8)12(3,4)5/h6-7,13H,1-5H3",OPLCSTZDXXUYDU-UHFFFAOYSA-N,Cc1cc(C)c(O)c(C(C)(C)C)c1,-3.1719091991000004,0.0,1,G1,178.27499999999998,3.306540000000002,56.28080000000004,13.0,1.0,1.0,1.0,0.0,72.0,1.0,0.0,0.0,1.0,20.23,80.41528955807262,3.371806865788218,318.63174096903674
A-4934,"1,2-dichloro-4-(trifluoromethyl)benzene","InChI=1S/C7H3Cl2F3/c8-5-2-1-4(3-6(5)9)7(10,11)12/h1-3H",XILPLWOGHPSJBK-UHFFFAOYSA-N,FC(F)(F)c1ccc(Cl)c(Cl)c1,-3.2679824907,0.0,1,G1,215.001,4.012200000000001,41.46400000000001,12.0,0.0,0.0,5.0,0.0,66.0,1.0,0.0,0.0,1.0,0.0,76.89948389643563,3.138261335720987,293.19322947353925
A-4942,2-methylpropyl 2-phenylacetate,"InChI=1S/C12H16O2/c1-10(2)9-14-12(13)8-11-6-4-3-5-7-11/h3-7,10H,8-9H2,1-2H3",RJASFPFZACBKBE-UHFFFAOYSA-N,CC(C)COC(=O)Cc1ccccc1,-3.2710471955,0.0,1,G1,192.258,2.4283,55.94300000000004,14.0,2.0,0.0,2.0,4.0,76.0,1.0,0.0,0.0,1.0,26.3,84.89612313542727,2.345166078016039,277.63302033025855
A-4944,1-chloro-4-methylbenzene,"InChI=1S/C7H7Cl/c1-6-2-4-7(8)5-3-6/h2-5H,1H3",NPDACUSDTOMAMK-UHFFFAOYSA-N,Cc1ccc(Cl)cc1,-3.1023856768,0.1917652471426898,4,G5,126.586,2.6484200000000007,36.18900000000001,8.0,0.0,0.0,1.0,0.0,42.0,1.0,0.0,0.0,1.0,0.0,54.09961146077524,3.0324555320336755,143.24662946459569
A-4958,3-Nitrophthalonitrile,InChI=1S/C8H3N3O2/c9-4-6-2-1-3-8(11(12)13)7(6)5-10/h1-3H,UZJZIZFCQFZDHP-UHFFFAOYSA-N,N#Cc1cccc([N+](=O)[O-])c1C#N,-2.9373448418,0.0,1,G1,173.13099999999997,1.33816,42.52640000000001,13.0,4.0,0.0,5.0,1.0,62.0,1.0,0.0,0.0,1.0,90.72,73.59942243372741,3.4929393077038924,439.6828531951769
A-4968,"1,3-dichloro-5-nitrobenzene",InChI=1S/C6H3Cl2NO2/c7-4-1-5(8)3-6(2-4)9(10)11/h1-3H,RNABGKOKSBUFHW-UHFFFAOYSA-N,O=[N+]([O-])c1cc(Cl)cc(Cl)c1,-3.5843334863,0.0,1,G1,192.001,2.9016,43.11640000000001,11.0,2.0,0.0,5.0,1.0,58.0,1.0,0.0,0.0,1.0,43.14,72.6909112957601,3.1860125339283023,280.3837992264624
A-4975,N-(4-fluorophenyl)-2-hydroxy-N-propan-2-ylacetamide,"InChI=1S/C11H14FNO2/c1-8(2)13(11(15)7-14)10-5-3-9(12)4-6-10/h3-6,8,14H,7H2,1-2H3",RISGISSUGUGJMO-UHFFFAOYSA-N,CC(C)N(C(=O)CO)c1ccc(F)cc1,-1.1786398993,0.0,1,G1,211.236,1.5594,56.10780000000003,15.0,2.0,1.0,4.0,3.0,82.0,1.0,0.0,0.0,1.0,40.540000000000006,88.1372386168494,2.9904886201096663,334.9460875329805
A-4982,4-heptylphenol,"InChI=1S/C13H20O/c1-2-3-4-5-6-7-12-8-10-13(14)11-9-12/h8-11,14H,2-7H2,1H3",KNDDEFBFJLKPFE-UHFFFAOYSA-N,CCCCCCCc1ccc(O)cc1,-3.6597017052,0.0,1,G1,192.302,3.9051000000000022,60.56980000000005,14.0,1.0,1.0,1.0,6.0,78.0,1.0,0.0,0.0,1.0,20.23,86.78023167246926,2.150399394372396,237.9174050049824
A-4984,(4-nonylphenoxy)acetic acid,"InChI=1S/C17H26O3/c1-2-3-4-5-6-7-8-9-15-10-12-16(13-11-15)20-14-17(18)19/h10-13H,2-9,14H2,1H3,(H,18,19)",NISAHDHKGPWBEM-UHFFFAOYSA-N,CCCCCCCCCc1ccc(OCC(=O)O)cc1,-3.8425967597,0.0,1,G1,278.392,4.443100000000004,81.26980000000006,20.0,2.0,1.0,3.0,11.0,112.0,1.0,0.0,0.0,1.0,46.53,121.51506745960636,2.1304990583726178,370.32643576295067
A-5073,"methyl 3-(3,5-di-tert-butyl-4-hydroxyphenyl)propanoate","InChI=1S/C18H28O3/c1-17(2,3)13-10-12(8-9-15(19)21-7)11-14(16(13)20)18(4,5)6/h10-11,20H,8-9H2,1-7H3",PXMJCECEFTYEKE-UHFFFAOYSA-N,COC(=O)CCc1cc(C(C)(C)C)c(O)c(C(C)(C)C)c1,-5.1235829068,0.0,1,G1,292.41900000000004,4.092800000000003,85.84380000000006,21.0,3.0,1.0,3.0,3.0,118.0,1.0,0.0,0.0,1.0,46.53,127.88000957400293,3.305743739619247,481.2405807774144
A-5076,"4-(3,4,5,6-tetramethyloctan-2-yl)phenol","InChI=1S/C16H26O/c1-5-12(2)14(4)13(3)6-7-15-8-10-16(17)11-9-15/h8-14,17H,5-7H2,1-4H3",AOOKHLGAVNECET-UHFFFAOYSA-N,CCC(C)C(C)C(C)CCc1ccc(O)cc1,-5.1824053879,0.0567546374,2,G3,234.383,4.643100000000005,74.21080000000005,17.0,1.0,1.0,1.0,6.0,96.0,1.0,0.0,0.0,1.0,20.23,105.87505801565908,2.420000187399063,314.80199295176607
A-5078,"1,2,4-tris(8-methylnonyl) benzene-1,2,4-tricarboxylate","InChI=1S/C39H66O6/c1-31(2)22-16-10-7-13-19-27-43-37(40)34-25-26-35(38(41)44-28-20-14-8-11-17-23-32(3)4)36(30-34)39(42)45-29-21-15-9-12-18-24-33(5)6/h25-26,30-33H,7-24,27-29H2,1-6H3",FJFYFBRNDHRTHL-UHFFFAOYSA-N,CC(C)CCCCCCCOC(=O)c1ccc(C(=O)OCCCCCCCC(C)C)c(C(=O)OCCCCCCCC(C)C)c1,-5.7065739478,0.0,1,G1,630.951,11.14679999999999,184.90949999999935,45.0,6.0,0.0,6.0,27.0,258.0,1.0,0.0,0.0,1.0,78.90000000000002,275.29969488323707,2.6631125379590603,935.4589706384484
A-5152,sodium 4-ethenylbenzene-1-sulfonate,"InChI=1S/C8H8O3S.Na/c1-2-7-3-5-8(6-4-7)12(9,10)11;/h2-6H,1H2,(H,9,10,11);/q;+1/p-1",XFTALRAZSCGSKN-UHFFFAOYSA-M,C=Cc1ccc(S(=O)(=O)[O-])cc1.[Na+],-0.0332510813,0.0,1,G1,206.198,-1.7622999999999984,44.496200000000016,13.0,3.0,0.0,5.0,2.0,64.0,1.0,0.0,0.0,1.0,57.2,99.51371994885852,1.4399996634000815e-06,380.35509562835625
A-5171,3-[1-hydroxy-2-(methylamino)ethyl]phenol hydrochloride,"InChI=1S/C9H13NO2.ClH/c1-10-6-9(12)7-3-2-4-8(11)5-7;/h2-5,9-12H,6H2,1H3;1H",OCYSGIYOVXAGKQ-UHFFFAOYSA-N,CNCC(O)c1cccc(O)c1.Cl,-0.308924931,0.0,1,G1,203.669,1.0667999999999995,54.24130000000003,13.0,3.0,3.0,4.0,3.0,74.0,1.0,0.0,0.0,1.0,52.489999999999995,83.81765240323628,1.4399996060001125e-06,255.12494694489405
A-5185,1-tert-butyl-4-vinylbenzene,"InChI=1S/C12H16/c1-5-10-6-8-11(9-7-10)12(2,3)4/h5-9H,1H2,2-4H3",QEDJMOONZLUIMC-UHFFFAOYSA-N,C=Cc1ccc(C(C)(C)C)cc1,-4.5633510279000005,0.0,1,G1,160.25999999999996,3.627100000000003,55.23300000000004,12.0,0.0,0.0,0.0,1.0,64.0,1.0,0.0,0.0,1.0,0.0,74.93145277369236,2.99883701071891,259.0849389236156
A-5186,"3,5-dimethylbenzoyl chloride","InChI=1S/C9H9ClO/c1-6-3-7(2)5-8(4-6)9(10)11/h3-5H,1-2H3",ZJIOBDJEKDUUCI-UHFFFAOYSA-N,Cc1cc(C)cc(C(=O)Cl)c1,-3.3292897203,0.0,1,G1,168.62299999999996,2.6824400000000006,46.09950000000002,11.0,1.0,0.0,2.0,1.0,58.0,1.0,0.0,0.0,1.0,17.07,70.99101778961223,3.1860125339283023,271.3642492178085
A-5196,"2,4,6-tris[(dimethylamino)methyl]phenol","InChI=1S/C15H27N3O/c1-16(2)9-12-7-13(10-17(3)4)15(19)14(8-12)11-18(5)6/h7-8,19H,9-11H2,1-6H3",AHDSRXYHVZECER-UHFFFAOYSA-N,CN(C)Cc1cc(CN(C)C)c(O)c(CN(C)C)c1,0.5055163708,0.0,1,G1,265.40099999999995,1.577,80.27980000000005,19.0,4.0,1.0,4.0,6.0,108.0,1.0,0.0,0.0,1.0,29.950000000000003,116.78961691187256,3.1300208753763616,382.84686810949546
A-5276,[4-(aminomethyl)phenyl]methanamine,"InChI=1S/C8H12N2/c9-5-7-1-2-8(6-10)4-3-7/h1-4H,5-6,9-10H2",ISKQADXMHQSTHK-UHFFFAOYSA-N,NCc1ccc(CN)cc1,1.1750718055,0.0,1,G1,136.198,0.6039999999999998,42.224800000000016,10.0,2.0,2.0,2.0,2.0,54.0,1.0,0.0,0.0,1.0,52.04,60.841068742315606,2.797251262969787,167.91749419417292
A-5279,ammonium 4-(acetoacetylamino)-5-methoxy-2-methylbenzenesulfonate,"InChI=1S/C12H15NO6S.H3N/c1-7-4-9(13-12(15)5-8(2)14)10(19-3)6-11(7)20(16,17)18;/h4,6H,5H2,1-3H3,(H,13,15)(H,16,17,18);1H3",ZPDRZMNAFLBUOA-UHFFFAOYSA-N,COc1cc(S(=O)(=O)[O-])c(C)cc1NC(=O)CC(C)=O.[NH4+],-0.2018762227,0.0,1,G1,318.351,1.2015199999999997,75.60670000000002,21.0,6.0,2.0,9.0,5.0,118.0,1.0,0.0,0.0,1.0,149.1,122.3718937930663,3.999997384001793e-06,653.9566519941801
A-5373,sodium 4-(ethoxycarbonyl)phenolate,"InChI=1S/C9H10O3.Na/c1-2-12-9(11)7-3-5-8(10)6-4-7;/h3-6,10H,2H2,1H3;/q;+1/p-1",QYNMSPKSYXPZHG-UHFFFAOYSA-M,CCOC(=O)c1ccc([O-])cc1.[Na+],0.7254773119,0.0,1,G1,188.158,-2.059099999999998,41.844500000000025,13.0,3.0,0.0,4.0,2.0,64.0,1.0,0.0,0.0,1.0,49.36,99.0089301671454,1.4399996082001118e-06,268.6932325870918
A-5380,tetramethylazanium 2-carboxybenzoate,"InChI=1S/C8H6O4.C4H12N/c9-7(10)5-3-1-2-4-6(5)8(11)12;1-5(2,3)4/h1-4H,(H,9,10)(H,11,12);1-4H3/q;+1/p-1",KQTFRASJMFIJPC-UHFFFAOYSA-M,C[N+](C)(C)C.O=C([O-])c1ccccc1C(=O)O,0.6211099353,0.0,1,G1,239.271,0.0707000000000006,61.68820000000004,17.0,3.0,1.0,5.0,2.0,94.0,1.0,0.0,0.0,1.0,77.43,100.50820382068412,4.373333156168897e-07,368.2118100829605
A-5406,"5-amino-2,4,6-triiodoisophthalic acid","InChI=1S/C8H4I3NO4/c9-3-1(7(13)14)4(10)6(12)5(11)2(3)8(15)16/h12H2,(H,13,14)(H,15,16)/p-2",JEZJSNULLBSYHV-UHFFFAOYSA-L,Nc1c(I)c(C(=O)[O-])c(I)c(C(=O)[O-])c1I,-1.569622787,0.0,1,G1,556.8190000000002,-0.1903999999999999,77.66639999999998,16.0,5.0,1.0,8.0,2.0,86.0,1.0,0.0,0.0,1.0,106.28,131.19820411291337,3.79658402512736,459.54216954175183
A-5407,2-amino-2-methylpropan-1-ol; 2-dodecylbenzene-1-sulfonic acid,"InChI=1S/C18H30O3S.C4H11NO/c1-2-3-4-5-6-7-8-9-10-11-14-17-15-12-13-16-18(17)22(19,20)21;1-4(2,5)3-6/h12-13,15-16H,2-11,14H2,1H3,(H,19,20,21);6H,3,5H2,1-2H3",VXMUUMWPUFLERR-UHFFFAOYSA-N,CC(C)(N)CO.CCCCCCCCCCCCc1ccccc1S(=O)(=O)O,0.2137915766,0.0,1,G1,415.64000000000016,5.112700000000005,117.15680000000008,28.0,4.0,3.0,6.0,13.0,164.0,1.0,0.0,0.0,1.0,100.62,172.03906856262134,1.0513634433099563e-06,609.2079220791732
A-5462,N-benzyl-2-acetamido-3-methoxypropanamide,"InChI=1S/C13H18N2O3/c1-10(16)15-12(9-18-2)13(17)14-8-11-6-4-3-5-7-11/h3-7,12H,8-9H2,1-2H3,(H,14,17)(H,15,16)",VPPJLAIAVCUEMN-UHFFFAOYSA-N,COCC(NC(C)=O)C(=O)NCc1ccccc1,-3.3984573794,0.0,1,G1,250.298,0.4539000000000007,67.76940000000003,18.0,3.0,2.0,5.0,6.0,98.0,1.0,0.0,0.0,1.0,67.42999999999999,106.52231171708374,2.481951907071221,392.48264694846
A-5469,2-methyl-4-phenylpentan-1-ol,"InChI=1S/C12H18O/c1-10(9-13)8-11(2)12-6-4-3-5-7-12/h3-7,10-11,13H,8-9H2,1-2H3",SXGYZCMGVZKIPJ-UHFFFAOYSA-N,CC(CO)CC(C)c1ccccc1,-2.3469160768,0.0,1,G1,178.275,2.808600000000001,55.72380000000005,13.0,1.0,1.0,1.0,4.0,72.0,1.0,0.0,0.0,1.0,20.23,80.41528955807264,2.534344075900792,230.1396094513844
A-5511,"11-methyldodecyl 2-{[(3,5-di-tert-butyl-4-hydroxyphenyl)methyl]sulfanyl}acetate","InChI=1S/C30H52O3S/c1-23(2)17-15-13-11-9-10-12-14-16-18-33-27(31)22-34-21-24-19-25(29(3,4)5)28(32)26(20-24)30(6,7)8/h19-20,23,32H,9-18,21-22H2,1-8H3",GBBDRAQIJBCOBP-UHFFFAOYSA-N,CC(C)CCCCCCCCCCOC(=O)CSCc1cc(C(C)(C)C)c(O)c(C(C)(C)C)c1,-6.7895895249,0.0,1,G1,492.8100000000003,8.930500000000004,149.01879999999983,34.0,4.0,1.0,4.0,15.0,196.0,1.0,0.0,0.0,1.0,46.53,214.38242497212755,2.2946693890172356,690.5415940895128
A-5523,"2-methyl-4,6-bis[(octylsulfanyl)methyl]phenol","InChI=1S/C25H44OS2/c1-4-6-8-10-12-14-16-27-20-23-18-22(3)25(26)24(19-23)21-28-17-15-13-11-9-7-5-2/h18-19,26H,4-17,20-21H2,1-3H3",GAODDBNJCKQQDY-UHFFFAOYSA-N,CCCCCCCCSCc1cc(C)c(O)c(CSCCCCCCCC)c1,-7.3271136165,1.0,2,G2,424.76000000000033,8.888020000000003,131.91980000000004,28.0,3.0,1.0,3.0,18.0,162.0,1.0,0.0,0.0,1.0,20.23,183.40575709595905,2.245134376337619,501.5663651214869
A-5560,"1,4-bis(2-ethylhexyl) benzene-1,4-dicarboxylate","InChI=1S/C24H38O4/c1-5-9-11-19(7-3)17-27-23(25)21-13-15-22(16-14-21)24(26)28-18-20(8-4)12-10-6-2/h13-16,19-20H,5-12,17-18H2,1-4H3",RWPICVVBGZBXNA-UHFFFAOYSA-N,CCCCC(CC)COC(=O)c1ccc(C(=O)OCC(CC)CCCC)cc1,-8.9896322186,0.0,1,G1,390.5640000000003,6.433000000000007,113.61900000000009,28.0,4.0,0.0,4.0,14.0,158.0,1.0,0.0,0.0,1.0,52.60000000000001,170.55049583773723,2.5017529827782146,513.4728097510645
A-5602,pentabromobenzyl acrylate,"InChI=1S/C10H5Br5O2/c1-2-5(16)17-3-4-6(11)8(13)10(15)9(14)7(4)12/h2H,1,3H2",GRKDVZMVHOLESV-UHFFFAOYSA-N,C=CC(=O)OCc1c(Br)c(Br)c(Br)c(Br)c1Br,-7.806077004,0.0,1,G1,556.6680000000002,5.728300000000002,84.93500000000002,17.0,2.0,0.0,7.0,3.0,92.0,1.0,0.0,0.0,1.0,26.3,140.8143739026566,3.156668476652161,455.0699807840217
A-5609,"bis(2-ethylhexyl) 3,4,5,6-tetrabromophthalate","InChI=1S/C24H34Br4O4/c1-5-9-11-15(7-3)13-31-23(29)17-18(20(26)22(28)21(27)19(17)25)24(30)32-14-16(8-4)12-10-6-2/h15-16H,5-14H2,1-4H3",UUEDINPOVKWVAZ-UHFFFAOYSA-N,CCCCC(CC)COC(=O)c1c(Br)c(Br)c(Br)c(Br)c1C(=O)OCC(CC)CCCC,-5.949075231,2.1004252490499997,2,G2,706.1479999999996,9.482999999999995,144.41899999999984,32.0,4.0,0.0,8.0,14.0,182.0,1.0,0.0,0.0,1.0,52.60000000000001,226.02068626030265,3.1510825091743797,704.101485023122
A-5693,"1,4-bis(propan-2-yl)benzene","InChI=1S/C12H18/c1-9(2)11-5-7-12(8-6-11)10(3)4/h5-10H,1-4H3",SPPWGCYEYAMHDT-UHFFFAOYSA-N,CC(C)c1ccc(C(C)C)cc1,-6.6027992709,0.0,1,G1,162.27599999999995,3.9334000000000033,54.62000000000005,12.0,0.0,0.0,0.0,2.0,66.0,1.0,0.0,0.0,1.0,0.0,75.6210558058766,2.855624622160824,201.72015243201017
A-5758,"1,2,4-tris(2-ethylhexyl) benzene-1,2,4-tricarboxylate","InChI=1S/C33H54O6/c1-7-13-16-25(10-4)22-37-31(34)28-19-20-29(32(35)38-23-26(11-5)17-14-8-2)30(21-28)33(36)39-24-27(12-6)18-15-9-3/h19-21,25-27H,7-18,22-24H2,1-6H3",KRADHMIOFJQKEZ-UHFFFAOYSA-N,CCCCC(CC)COC(=O)c1ccc(C(=O)OCC(CC)CCCC)c(C(=O)OCC(CC)CCCC)c1,-8.2520983426,0.0,1,G1,546.7890000000003,8.806200000000006,157.20749999999973,39.0,6.0,0.0,6.0,21.0,222.0,1.0,0.0,0.0,1.0,78.90000000000002,237.1100421968574,3.0977320648348665,848.596012940059
A-5811,"octadecyl 3-(3,5-di-tert-butyl-4-hydroxyphenyl)propanoate","InChI=1S/C35H62O3/c1-8-9-10-11-12-13-14-15-16-17-18-19-20-21-22-23-26-38-32(36)25-24-29-27-30(34(2,3)4)33(37)31(28-29)35(5,6)7/h27-28,37H,8-26H2,1-7H3",SSDSCDGVMJFTEQ-UHFFFAOYSA-N,CCCCCCCCCCCCCCCCCCOC(=O)CCc1cc(C(C)(C)C)c(O)c(C(C)(C)C)c1,-8.2701498682,0.9949886902237852,3,G4,530.8780000000003,10.724499999999992,164.33279999999965,38.0,3.0,1.0,3.0,20.0,220.0,1.0,0.0,0.0,1.0,46.53,236.08402551874536,2.131331311862653,731.3600463441552
A-5982,"1-phenyldecane-1,3-dione","InChI=1S/C16H22O2/c1-2-3-4-5-9-12-15(17)13-16(18)14-10-7-6-8-11-14/h6-8,10-11H,2-5,9,12-13H2,1H3",IFQULAPKPYIHBS-UHFFFAOYSA-N,CCCCCCCC(=O)CC(=O)c1ccccc1,-5.8836966949,0.0451755276483622,3,G5,246.35,4.189000000000004,73.77250000000005,18.0,2.0,0.0,2.0,9.0,98.0,1.0,0.0,0.0,1.0,34.14,109.40386846355062,2.219603799293727,367.9431671967477
A-6054,"1,2,4-trinonyl benzene-1,2,4-tricarboxylate","InChI=1S/C36H60O6/c1-4-7-10-13-16-19-22-27-40-34(37)31-25-26-32(35(38)41-28-23-20-17-14-11-8-5-2)33(30-31)36(39)42-29-24-21-18-15-12-9-6-3/h25-26,30H,4-24,27-29H2,1-3H3",ROPPTGKKZZDFJN-UHFFFAOYSA-N,CCCCCCCCCOC(=O)c1ccc(C(=O)OCCCCCCCCC)c(C(=O)OCCCCCCCCC)c1,-6.757182205,0.0,1,G1,588.8700000000002,10.408799999999994,171.26849999999956,42.0,6.0,0.0,6.0,27.0,240.0,1.0,0.0,0.0,1.0,78.90000000000002,256.20486854004724,2.6761772166286772,849.290364048045
A-6086,sodium 4-hydroxybenzene-1-sulfonate,"InChI=1S/C6H6O4S.Na/c7-5-1-3-6(4-2-5)11(8,9)10;/h1-4,7H,(H,8,9,10);/q;+1/p-1",BYMHXIQVEAYSJD-UHFFFAOYSA-M,O=S(=O)([O-])c1ccc(O)cc1.[Na+],-8.3631893131,0.0,1,G1,196.1589999999999,-2.699699999999999,36.07000000000001,12.0,4.0,1.0,6.0,1.0,60.0,1.0,0.0,0.0,1.0,77.43,92.26767250444551,1.2099997657000466e-06,342.3157641993789
B-2,5-bromo-3-hydroxybenzaldehyde,"InChI=1S/C7H5BrO2/c8-6-1-5(4-9)2-7(10)3-6/h1-4,10H",XVFGERBEZKEGSS-UHFFFAOYSA-N,O=Cc1cc(O)cc(Br)c1,-3.2502,0.0,1,G1,201.019,1.9672,41.19430000000001,10.0,2.0,1.0,3.0,1.0,52.0,1.0,0.0,0.0,1.0,37.3,66.61964869177471,3.1790298004027595,237.53306142431703
B-4,hydroxyphenamate,"InChI=1S/C11H15NO3/c1-2-11(14,8-15-10(12)13)9-6-4-3-5-7-9/h3-7,14H,2,8H2,1H3,(H2,12,13)",WAFIYOULDIWAKR-UHFFFAOYSA-N,CCC(O)(COC(N)=O)c1ccccc1,-0.9227,0.0,1,G1,209.24500000000003,1.3795000000000002,56.16520000000003,15.0,3.0,2.0,4.0,4.0,82.0,1.0,0.0,0.0,1.0,72.55000000000001,88.66530547023939,2.8043725752995514,325.8647357796279
B-7,"2,6-dichlorobenzoic acid","InChI=1S/C7H4Cl2O2/c8-4-2-1-3-5(9)6(4)7(10)11/h1-3H,(H,10,11)",MRUDNSFOFOQZDA-UHFFFAOYSA-N,O=C(O)c1c(Cl)cccc1Cl,-1.1309,0.0,1,G1,191.013,2.691600000000001,43.42130000000001,11.0,1.0,1.0,4.0,1.0,58.0,1.0,0.0,0.0,1.0,37.3,73.35863353989669,3.318913173486669,276.2420897763861
B-8,"2,3,6-trichlorobenzoic acid","InChI=1S/C7H3Cl3O2/c8-3-1-2-4(9)6(10)5(3)7(11)12/h1-2H,(H,11,12)",XZIDTOHMJBOSOX-UHFFFAOYSA-N,O=C(O)c1c(Cl)ccc(Cl)c1Cl,-1.4666,0.0182999999999999,2,G3,225.458,3.3450000000000006,48.43130000000001,12.0,1.0,1.0,5.0,1.0,64.0,1.0,0.0,0.0,1.0,37.3,83.66189976677836,3.4289308810061763,335.66852769827057
B-17,"2,4,5-trichlorobenzoic acid","InChI=1S/C7H3Cl3O2/c8-4-2-6(10)5(9)1-3(4)7(11)12/h1-2H,(H,11,12)",PTFNNDHASFGWFI-UHFFFAOYSA-N,O=C(O)c1cc(Cl)c(Cl)cc1Cl,-2.4446,0.0,1,G1,225.458,3.3450000000000006,48.43130000000001,12.0,1.0,1.0,5.0,1.0,64.0,1.0,0.0,0.0,1.0,37.3,83.66189976677836,3.3258841466405995,335.66852769827057
B-18,"2,4-dichlorobenzoic acid","InChI=1S/C7H4Cl2O2/c8-4-1-2-5(7(10)11)6(9)3-4/h1-3H,(H,10,11)",ATCRIUVQKHMXSH-UHFFFAOYSA-N,O=C(O)c1ccc(Cl)cc1Cl,-2.6003,0.0,1,G1,191.013,2.6916,43.42130000000001,11.0,1.0,1.0,4.0,1.0,58.0,1.0,0.0,0.0,1.0,37.3,73.35863353989669,3.1960696621259195,296.492089776386
B-24,adrenaline tartrate (1:1),"InChI=1S/C9H13NO3.C4H6O6/c1-10-5-9(13)6-2-3-7(11)8(12)4-6;5-1(3(7)8)2(6)4(9)10/h2-4,9-13H,5H2,1H3;1-2,5-6H,(H,7,8)(H,9,10)/t9-;1-,2-/m01/s1",YLXIPWWIOISBDD-NDAAPVSOSA-N,CNC[C@H](O)c1ccc(O)c(O)c1.O=C(O)[C@H](O)[C@@H](O)C(=O)O,0.0,0.0,1,G1,333.29300000000006,-1.7719999999999998,75.94330000000002,23.0,8.0,8.0,10.0,6.0,130.0,1.0,0.0,0.0,1.0,187.77999999999997,130.42437172287015,4.383076810427599e-07,516.1765210653261