ID,Name,InChI,InChIKey,SMILES,Solubility,SD,Occurrences,Group,MolWt,MolLogP,MolMR,HeavyAtomCount,NumHAcceptors,NumHDonors,NumHeteroatoms,NumRotatableBonds,NumValenceElectrons,NumAromaticRings,NumSaturatedRings,NumAliphaticRings,RingCount,TPSA,LabuteASA,BalabanJ,BertzCT
E-1159,cycloheximide,"InChI=1S/C15H23NO4/c1-8-3-9(2)15(20)11(4-8)12(17)5-10-6-13(18)16-14(19)7-10/h8-12,17H,3-7H2,1-2H3,(H,16,18,19)",YPHMISFOHDHNIV-UHFFFAOYSA-N,CC1CC(C)C(=O)C(C(O)CC2CC(=O)NC(=O)C2)C1,-1.13,0.0,1,G1,281.35200000000003,1.0415,72.55650000000004,20.0,4.0,2.0,5.0,3.0,112.0,0.0,2.0,2.0,2.0,83.47,118.66544055825898,1.9621955411559604,404.0965760348748
A-2621,"Phenol, 4-methyl-, reaction products with dicyclopentadiene and isobutylene","InChI=1S/C10H12.C7H8O.C4H8/c1-2-9-7-4-5-8(6-7)10(9)3-1;1-6-2-4-7(8)5-3-6;1-4(2)3/h1-2,4-5,7-10H,3,6H2;2-5,8H,1H3;1H2,2-3H3",UQQYHXZNSYZMEN-UHFFFAOYSA-N,C1=CC2C3C=CC(C3)C2C1.C=C(C)C.Cc1ccc(O)cc1,-6.1709273189,0.6505149978500002,2,G2,296.454,5.667620000000005,94.80580000000003,22.0,1.0,1.0,1.0,0.0,118.0,1.0,1.0,3.0,4.0,20.23,134.6251283375601,1.3325396675189724e-07,524.7748016824258
B-2911,terfenadine,"InChI=1S/C32H41NO2/c1-31(2,3)26-18-16-25(17-19-26)30(34)15-10-22-33-23-20-29(21-24-33)32(35,27-11-6-4-7-12-27)28-13-8-5-9-14-28/h4-9,11-14,16-19,29-30,34-35H,10,15,20-24H2,1-3H3",GUGOEEXESWIERI-UHFFFAOYSA-N,CC(C)(C)c1ccc(C(O)CCCN2CCC(C(O)(c3ccccc3)c3ccccc3)CC2)cc1,-6.69,0.0,1,G1,471.6850000000001,6.445800000000007,144.38259999999983,35.0,3.0,2.0,3.0,8.0,186.0,3.0,1.0,1.0,4.0,43.7,210.99725115424363,1.317281345957648,992.9311441153958
B-896,aconitine,"InChI=1S/C34H47NO11/c1-7-35-15-31(16-41-3)20(37)13-21(42-4)33-19-14-32(40)28(45-30(39)18-11-9-8-10-12-18)22(19)34(46-17(2)36,27(38)29(32)44-6)23(26(33)35)24(43-5)25(31)33/h8-12,19-29,37-38,40H,7,13-16H2,1-6H3/t19-,20-,21+,22-,23+,24+,25-,26?,27+,28-,29+,31+,32-,33+,34-/m1/s1",XFSBVAOIAHNAPC-XTHSEXKGSA-N,CCN1C[C@]2(COC)[C@H](O)C[C@H](OC)[C@]34C1[C@H]([C@H](OC)[C@H]23)[C@]1(OC(C)=O)[C@H]2[C@@H](OC(=O)c3ccccc3)[C@](O)(C[C@H]24)[C@@H](OC)[C@@H]1O,-3.3187,0.0,1,G1,645.7460000000002,0.6481000000000052,160.46789999999967,46.0,12.0,3.0,12.0,9.0,254.0,1.0,6.0,6.0,7.0,153.45000000000002,268.7616459053468,1.529326211999944,1363.5594192210249
F-1137,4-chloro-2-(furan-2-ylmethylamino)-5-sulfamoylbenzoic acid,"InChI=1S/C12H11ClN2O5S/c13-9-5-10(15-6-7-2-1-3-20-7)8(12(16)17)4-11(9)21(14,18)19/h1-5,15H,6H2,(H,16,17)(H2,14,18,19)",ZZUFCTLCJUWOSV-UHFFFAOYSA-N,NS(=O)(=O)c1cc(C(=O)O)c(NCc2ccco2)cc1Cl,-3.83,0.336286703077399,3,G5,330.7490000000001,1.8907000000000005,75.81920000000002,21.0,5.0,3.0,9.0,5.0,112.0,2.0,0.0,0.0,2.0,122.63,124.92226167058836,2.4066257491277265,771.1955159056121
B-2723,"benzamide, n-[2-(1h-imidazol-4-yl)ethyl]-","InChI=1S/C12H13N3O/c16-12(10-4-2-1-3-5-10)14-7-6-11-8-13-9-15-11/h1-5,8-9H,6-7H2,(H,13,15)(H,14,16)",DAUCLDROLUGJDY-UHFFFAOYSA-N,O=C(NCCc1c[nH]cn1)c1ccccc1,-0.634,0.0,1,G1,215.256,1.3822,61.066900000000025,16.0,2.0,2.0,4.0,4.0,82.0,2.0,0.0,0.0,2.0,57.78,93.72351635436344,1.8058515602791256,436.55213696540903
A-1893,"hexamethyl-1,3,5,2,4,6-trioxatrisilinane","InChI=1S/C6H18O3Si3/c1-10(2)7-11(3,4)9-12(5,6)8-10/h1-6H3",HTDJPCNNEPUOOQ-UHFFFAOYSA-N,C[Si]1(C)O[Si](C)(C)O[Si](C)(C)O1,0.652738306,2.89794000865,2,G2,222.46499999999995,2.1552,55.70100000000003,12.0,3.0,0.0,6.0,0.0,72.0,0.0,1.0,1.0,1.0,27.69,77.78169904438485,2.808020996764068,145.19311924156366
F-1145,"4-(2-oxo-1,3,3~{a},4,5,6,7,7~{a}-octahydrobenzimidazol-4-yl)butanoic acid","InChI=1S/C11H18N2O3/c14-9(15)6-2-4-7-3-1-5-8-10(7)13-11(16)12-8/h7-8,10H,1-6H2,(H,14,15)(H2,12,13,16)",KCUZHOVRGQTHKG-UHFFFAOYSA-N,O=C(O)CCCC1CCCC2NC(=O)NC12,-0.96,0.0,1,G1,226.276,1.0914,58.07120000000003,16.0,2.0,3.0,5.0,4.0,90.0,0.0,2.0,2.0,2.0,78.43,94.59401218423682,1.8374793315356663,292.9542624102254
A-470,quinolin-8-ol,"InChI=1S/C9H7NO/c11-8-5-1-3-7-4-2-6-10-9(7)8/h1-6,11H",MCJGNVYPOGVAJF-UHFFFAOYSA-N,Oc1cccc2cccnc12,-2.3496052546,0.0408401606883919,3,G5,145.16099999999997,1.9403999999999997,43.407800000000016,11.0,2.0,1.0,2.0,0.0,54.0,2.0,0.0,0.0,2.0,33.120000000000005,64.1269493843747,2.9131611636048604,378.7244463345712
A-746,5-chloro-7-iodoquinolin-8-ol,"InChI=1S/C9H5ClINO/c10-6-4-7(11)9(13)8-5(6)2-1-3-12-8/h1-4,13H",QCDFBFJGMNKBDO-UHFFFAOYSA-N,Oc1c(I)cc(Cl)c2cccnc12,-1.8222562261,0.0,1,G1,305.502,3.1984000000000004,61.134800000000006,13.0,2.0,1.0,4.0,0.0,66.0,2.0,0.0,0.0,2.0,33.120000000000005,93.6920537323,2.9668729339241464,472.3665095200525
A-1038,"4,7-dichloroquinoline",InChI=1S/C9H5Cl2N/c10-6-1-2-7-8(11)3-4-12-9(7)5-6/h1-5H,HXEWMTXDBOQQKO-UHFFFAOYSA-N,Clc1ccc2c(Cl)ccnc2c1,-2.8026246384,0.0,1,G1,198.052,3.5416000000000007,51.76300000000001,12.0,1.0,0.0,3.0,0.0,60.0,2.0,0.0,0.0,2.0,12.89,79.93924808594203,2.8630257936849905,425.7980911891212
A-1149,2-methylquinolin-8-ol,"InChI=1S/C10H9NO/c1-7-5-6-8-3-2-4-9(12)10(8)11-7/h2-6,12H,1H3",NBYLBWHHTUWMER-UHFFFAOYSA-N,Cc1ccc2cccc(O)c2n1,-1.7306186153,0.0,1,G1,159.188,2.2488200000000007,48.144800000000025,12.0,2.0,1.0,2.0,0.0,60.0,2.0,0.0,0.0,2.0,33.120000000000005,70.4918914987713,2.87714455842684,423.10813525322834
A-2104,(2R)-heptan-2-yl 2-[(5-chloroquinolin-8-yl)oxy]acetate (2S)-heptan-2-yl 2-[(5-chloroquinolin-8-yl)oxy]acetate,"InChI=1S/C18H22ClNO3/c1-3-4-5-7-13(2)23-17(21)12-22-16-10-9-15(19)14-8-6-11-20-18(14)16/h6,8-11,13H,3-5,7,12H2,1-2H3",COYBRKAVBMYYSF-UHFFFAOYSA-N,CCCCCC(C)OC(=O)COc1ccc(Cl)c2cccnc12,-5.7479695323,0.0859871628120714,4,G5,335.8310000000001,4.779000000000004,91.94400000000006,23.0,4.0,0.0,5.0,8.0,124.0,2.0,0.0,0.0,2.0,48.42,141.30907344768733,1.908833851857749,659.7567984804332
A-3407,quinoline,InChI=1S/C9H7N/c1-2-6-9-8(4-1)5-3-7-10-9/h1-7H,SMWDFEZZVXVKRB-UHFFFAOYSA-N,c1ccc2ncccc2c1,-1.325093551,0.0134360731999999,2,G3,129.16199999999998,2.2348,41.743000000000016,10.0,1.0,0.0,1.0,0.0,48.0,2.0,0.0,0.0,2.0,12.89,59.33271563217868,2.8880516016579914,275.7051383449476
B-309,8-quinolinecarboxylic acid,"InChI=1S/C10H7NO2/c12-10(13)8-5-1-3-7-4-2-6-11-9(7)8/h1-6H,(H,12,13)",QRDZFPUVLYEQTA-UHFFFAOYSA-N,O=C(O)c1cccc2cccnc12,-1.7447,0.0,1,G1,173.171,1.933,48.702300000000015,13.0,2.0,1.0,3.0,1.0,64.0,2.0,0.0,0.0,2.0,50.19,74.65341359881505,2.83097565836767,459.93632858848656
B-364,2-quinolinecarboxylic acid,"InChI=1S/C10H7NO2/c12-10(13)9-6-5-7-3-1-2-4-8(7)11-9/h1-6H,(H,12,13)",LOAUVZALPPNFOQ-UHFFFAOYSA-N,O=C(O)c1ccc2ccccc2n1,-1.0911,0.0,1,G1,173.171,1.933,48.702300000000015,13.0,2.0,1.0,3.0,1.0,64.0,2.0,0.0,0.0,2.0,50.19,74.65341359881505,2.6860346638769905,465.18632858848656
B-367,"quinoline, 2,7-dimethyl-","InChI=1S/C11H11N/c1-8-3-5-10-6-4-9(2)12-11(10)7-8/h3-7H,1-2H3",QXKPLNCZSFACPU-UHFFFAOYSA-N,Cc1ccc2ccc(C)nc2c1,-1.9424,0.0,1,G1,157.21599999999998,2.8516400000000006,51.21700000000002,12.0,1.0,0.0,1.0,0.0,60.0,2.0,0.0,0.0,2.0,12.89,72.06259986097191,2.797846408466882,381.5236683970916
B-771,"8-quinolinol,5-chloro-","InChI=1S/C9H6ClNO/c10-7-3-4-8(12)9-6(7)2-1-5-11-9/h1-5,12H",CTQMJYWDVABFRZ-UHFFFAOYSA-N,Oc1ccc(Cl)c2cccnc12,-3.9756,0.0,1,G1,179.60600000000002,2.5938000000000008,48.41780000000001,12.0,2.0,1.0,3.0,0.0,60.0,2.0,0.0,0.0,2.0,33.120000000000005,74.43021561125636,2.946471324842402,387.2980911891212
B-1069,"8-quinolinol, 5,7-dibromo-","InChI=1S/C9H5Br2NO/c10-6-4-7(11)9(13)8-5(6)2-1-3-12-8/h1-4,13H",ZDASUJMDVPTNTF-UHFFFAOYSA-N,Oc1c(Br)cc(Br)c2cccnc12,-4.1938,0.0,1,G1,302.95300000000003,3.4654000000000007,58.80780000000001,13.0,2.0,1.0,4.0,0.0,66.0,2.0,0.0,0.0,2.0,33.120000000000005,91.8620445956574,2.9668729339241464,470.3665095200525
B-1227,3-quinolinol,"InChI=1S/C9H7NO/c11-8-5-7-3-1-2-4-9(7)10-6-8/h1-6,11H",IQQDNMHUOLMLNJ-UHFFFAOYSA-N,Oc1cnc2ccccc2c1,-2.3925,0.0,1,G1,145.16099999999997,1.9403999999999997,43.40780000000002,11.0,2.0,1.0,2.0,0.0,54.0,2.0,0.0,0.0,2.0,33.120000000000005,64.1269493843747,2.8289012156206956,383.9744463345712
B-1635,"2,4-dimethylquinoline","InChI=1S/C11H11N/c1-8-7-9(2)12-11-6-4-3-5-10(8)11/h3-7H,1-2H3",ZTNANFDSJRRZRJ-UHFFFAOYSA-N,Cc1cc(C)c2ccccc2n1,-1.9424,0.0,1,G1,157.21599999999998,2.8516400000000006,51.21700000000003,12.0,1.0,0.0,1.0,0.0,60.0,2.0,0.0,0.0,2.0,12.89,72.06259986097189,2.8920650451735157,418.2736683970917
B-2121,"quinoline, 2-(nitromethyl)-","InChI=1S/C10H8N2O2/c13-12(14)7-9-6-5-8-3-1-2-4-10(8)11-9/h1-6H,7H2",SIQRLWJNWZCECZ-UHFFFAOYSA-N,O=[N+]([O-])Cc1ccc2ccccc2n1,-2.0545,0.0,1,G1,188.186,2.0115,52.441400000000016,14.0,3.0,0.0,4.0,2.0,70.0,2.0,0.0,0.0,2.0,56.03,80.35063346907509,2.4574956097268665,482.2606222531353
B-2295,5-quinolinecarboxylic acid,"InChI=1S/C10H7NO2/c12-10(13)8-3-1-5-9-7(8)4-2-6-11-9/h1-6H,(H,12,13)",RAYMXZBXQCGRGX-UHFFFAOYSA-N,O=C(O)c1cccc2ncccc12,-2.6774,0.0,1,G1,173.171,1.933,48.702300000000015,13.0,2.0,1.0,3.0,1.0,64.0,2.0,0.0,0.0,2.0,50.19,74.65341359881505,2.83097565836767,459.93632858848656
B-2355,6-quinolinecarboxylic acid,"InChI=1S/C10H7NO2/c12-10(13)8-3-4-9-7(6-8)2-1-5-11-9/h1-6H,(H,12,13)",VXGYRCVTBHVXMZ-UHFFFAOYSA-N,O=C(O)c1ccc2ncccc2c1,-0.0456,0.0,1,G1,173.171,1.933,48.70230000000002,13.0,2.0,1.0,3.0,1.0,64.0,2.0,0.0,0.0,2.0,50.19,74.65341359881506,2.6860346638769905,465.18632858848656
B-2784,"2-propenoic acid, 7-bromo-5-chloro-8-quinolinyl","InChI=1S/C12H7BrClNO2/c1-2-10(16)17-12-8(13)6-9(14)7-4-3-5-15-11(7)12/h2-6H,1H2",YDNLKBDXQCHOTH-UHFFFAOYSA-N,C=CC(=O)Oc1c(Br)cc(Cl)c2cccnc12,-4.7168,0.0,1,G1,312.55,3.7421000000000015,70.28500000000001,17.0,3.0,0.0,5.0,2.0,86.0,2.0,0.0,0.0,2.0,39.19,111.18382010525792,2.6857347800330613,612.7222724681442
B-2847,"8-quinolinol, 2-methyl-5-nitro-","InChI=1S/C10H8N2O3/c1-6-2-3-7-8(12(14)15)4-5-9(13)10(7)11-6/h2-5,13H,1H3",XYPACLZTPMHPLB-UHFFFAOYSA-N,Cc1ccc2c([N+](=O)[O-])ccc(O)c2n1,-3.9598,0.0,1,G1,204.185,2.1570200000000006,54.79920000000001,15.0,4.0,1.0,5.0,1.0,76.0,2.0,0.0,0.0,2.0,76.25999999999999,85.14486722127108,2.8819320255359693,551.6039525151065
B-3286,"8-quinolinecarboxylic acid, 5-nitro-","InChI=1S/C10H6N2O4/c13-10(14)7-3-4-8(12(15)16)6-2-1-5-11-9(6)7/h1-5H,(H,13,14)",HXHZCOASPJWXPP-UHFFFAOYSA-N,O=C(O)c1ccc([N+](=O)[O-])c2cccnc12,-3.1656,0.0,1,G1,218.168,1.8411999999999995,55.3567,16.0,4.0,1.0,6.0,2.0,80.0,2.0,0.0,0.0,2.0,93.32999999999998,89.30638932131485,2.872654785547702,541.8887652577182
B-3324,quinmerac,"InChI=1S/C11H8ClNO2/c1-6-4-7-2-3-8(12)9(11(14)15)10(7)13-5-6/h2-5H,1H3,(H,14,15)",ALZOLUNSQWINIR-UHFFFAOYSA-N,Cc1cnc2c(C(=O)O)c(Cl)ccc2c1,-2.9973,0.5113499999999997,2,G2,221.64299999999997,2.89482,58.449300000000015,15.0,2.0,1.0,4.0,1.0,76.0,2.0,0.0,0.0,2.0,50.190000000000005,91.32162194009337,2.875721300705676,551.5243731611332
B-3379,"quinoline, 5-acetamido-8-ethoxy-","InChI=1S/C13H14N2O2/c1-3-17-12-7-6-11(15-9(2)16)10-5-4-8-14-13(10)12/h4-8H,3H2,1-2H3,(H,15,16)",UHIFHPBBOPIWEO-UHFFFAOYSA-N,CCOc1ccc(NC(C)=O)c2cccnc12,-1.5171,0.0,1,G1,230.267,2.5919000000000008,67.21570000000003,17.0,3.0,1.0,4.0,3.0,88.0,2.0,0.0,0.0,2.0,51.22,99.6174136029238,2.572870219143712,552.1108014996008
B-4604,6-hydroxyquinoline,"InChI=1S/C9H7NO/c11-8-3-4-9-7(6-8)2-1-5-10-9/h1-6,11H",OVYWMEWYEJLIER-UHFFFAOYSA-N,Oc1ccc2ncccc2c1,-2.1618,0.0,1,G1,145.161,1.9403999999999997,43.40780000000002,11.0,2.0,1.0,2.0,0.0,54.0,2.0,0.0,0.0,2.0,33.120000000000005,64.1269493843747,2.8289012156206956,383.9744463345712
C-1347,chloroquine,"InChI=1S/C18H26ClN3/c1-4-22(5-2)12-6-7-14(3)21-17-10-11-20-18-13-15(19)8-9-16(17)18/h8-11,13-14H,4-7,12H2,1-3H3,(H,20,21)",WHTVZRBIWZFKQO-UHFFFAOYSA-N,CCN(CC)CCCC(C)Nc1ccnc2cc(Cl)ccc12,-2.83,0.0,1,G1,319.88,4.810600000000004,96.85970000000006,22.0,3.0,1.0,4.0,8.0,120.0,2.0,0.0,0.0,2.0,28.16,138.23015674244124,1.9543317629987864,595.902004288487
C-2050,"quinclorac; 3,7-dichloro-8-carboxyquinoline; 3,7-dichloro-8-quinolinecarboxylic acid","InChI=1S/C10H5Cl2NO2/c11-6-3-5-1-2-7(12)8(10(14)15)9(5)13-4-6/h1-4H,(H,14,15)",FFSSWMQPCJRCRV-UHFFFAOYSA-N,O=C(O)c1c(Cl)ccc2cc(Cl)cnc12,-3.57,0.0,1,G1,242.061,3.2398000000000007,58.72230000000001,15.0,2.0,1.0,5.0,1.0,76.0,2.0,0.0,0.0,2.0,50.19,95.2599460525784,2.8757213007056763,554.3588400172699
E-680,dibucaine,"InChI=1S/C20H29N3O2/c1-4-7-14-25-19-15-17(16-10-8-9-11-18(16)22-19)20(24)21-12-13-23(5-2)6-3/h8-11,15H,4-7,12-14H2,1-3H3,(H,21,24)",PUFQVTATUTYEAL-UHFFFAOYSA-N,CCCCOc1cc(C(=O)NCCN(CC)CC)c2ccccc2n1,-3.7,0.472977979285388,3,G5,343.471,3.4853000000000023,102.26720000000007,25.0,4.0,1.0,5.0,10.0,136.0,2.0,0.0,0.0,2.0,54.46,149.93184207390345,2.146937510494859,683.6956431078801
F-33,"2,3-dimethylquinolin-8-ol","InChI=1S/C11H11NO/c1-7-6-9-4-3-5-10(13)11(9)12-8(7)2/h3-6,13H,1-2H3",ZBLCWYDHYTWUSK-UHFFFAOYSA-N,Cc1cc2cccc(O)c2nc1C,-3.32,0.0,1,G1,173.21499999999995,2.557240000000001,52.88180000000003,13.0,2.0,1.0,2.0,0.0,66.0,2.0,0.0,0.0,2.0,33.120000000000005,76.85683361316791,2.885144967316768,462.84208672802305
F-315,5-aminoquinoline-8-sulfonic acid,"InChI=1S/C9H8N2O3S/c10-7-3-4-8(15(12,13)14)9-6(7)2-1-5-11-9/h1-5H,10H2,(H,12,13,14)",AFVRYMPIZFJJIL-UHFFFAOYSA-N,Nc1ccc(S(=O)(=O)O)c2ncccc12,-2.71,0.0,1,G1,224.241,1.0637,55.97000000000001,15.0,4.0,2.0,6.0,1.0,78.0,2.0,0.0,0.0,2.0,93.28,86.30124233923202,2.961958871524338,622.290103488985
F-316,5-aminoquinoline-6-sulfonic acid,"InChI=1S/C9H8N2O3S/c10-9-6-2-1-5-11-7(6)3-4-8(9)15(12,13)14/h1-5H,10H2,(H,12,13,14)",RSLYDUZZJLDOKH-UHFFFAOYSA-N,Nc1c(S(=O)(=O)O)ccc2ncccc12,-2.5,0.0,1,G1,224.241,1.0637,55.97000000000001,15.0,4.0,2.0,6.0,1.0,78.0,2.0,0.0,0.0,2.0,93.28,86.30124233923202,2.8818096234329795,622.2901034889852
F-437,8-hydroxy-7-iodoquinoline-5-sulfonic acid,"InChI=1S/C9H6INO4S/c10-6-4-7(16(13,14)15)5-2-1-3-11-8(5)9(6)12/h1-4,12H,(H,13,14,15)",ZBJWWKFMHOAPNS-UHFFFAOYSA-N,O=S(=O)(O)c1cc(I)c(O)c2ncccc12,-2.2,0.0,1,G1,351.121,1.7916999999999998,65.9394,16.0,4.0,2.0,7.0,1.0,84.0,2.0,0.0,0.0,2.0,87.49000000000001,105.01742351545896,3.0238914262815753,668.5084752482783
F-826,(4-ethyl-3-methylquinolin-2-yl)methanamine,"InChI=1S/C13H16N2/c1-3-10-9(2)13(8-14)15-12-7-5-4-6-11(10)12/h4-7H,3,8,14H2,1-2H3",NRGZORWWHZQKDH-UHFFFAOYSA-N,CCc1c(C)c(CN)nc2ccccc12,-1.48,0.0,1,G1,200.2849999999999,2.5643200000000004,63.74940000000003,15.0,2.0,1.0,2.0,2.0,78.0,2.0,0.0,0.0,2.0,38.91,90.13237478677785,2.830498073410044,489.1050894696965
B-48,cantharidin,"InChI=1S/C10H12O4/c1-9-5-3-4-6(13-5)10(9,2)8(12)14-7(9)11/h5-6H,3-4H2,1-2H3/t5-,6+,9+,10-",DHZBEENLJMYSHQ-XCVPVQRUSA-N,C[C@@]12C(=O)OC(=O)[C@]1(C)[C@H]1CC[C@@H]2O1,-3.8156,0.0,1,G1,196.20199999999997,0.6436,45.20800000000003,14.0,4.0,0.0,4.0,0.0,76.0,0.0,3.0,3.0,3.0,52.6,81.55637125591262,2.210427288035272,318.03116116495596
A-5,4-chlorobenzaldehyde,InChI=1S/C7H5ClO/c8-7-3-1-6(5-9)2-4-7/h1-5H,AVPYQKSLYISFPO-UHFFFAOYSA-N,O=Cc1ccc(Cl)cc1,-2.1770779444,0.0,1,G1,140.569,2.1525,36.839500000000015,9.0,1.0,0.0,2.0,1.0,46.0,1.0,0.0,0.0,1.0,17.07,58.261133560819005,3.009781947786601,202.66106510209755
A-10,vinyltoluene,"InChI=1S/C9H10/c1-3-9-6-4-5-8(2)7-9/h3-7H,1H2,2H3",JZHGRUMIRATHIU-UHFFFAOYSA-N,C=Cc1cccc(C)c1,-3.1231503041,0.0,1,G1,118.179,2.638020000000001,41.27000000000002,9.0,0.0,0.0,0.0,1.0,46.0,1.0,0.0,0.0,1.0,0.0,55.83662643050253,3.070760681783566,211.0332245435199
A-17,4-(dimethylamino)benzaldehyde,"InChI=1S/C9H11NO/c1-10(2)9-5-3-8(7-11)4-6-9/h3-7H,1-2H3",BGNGWHSBYQYVRX-UHFFFAOYSA-N,CN(C)c1ccc(C=O)cc1,-2.2827688499,0.0,1,G1,149.19299999999998,1.5651,46.15650000000002,11.0,2.0,0.0,2.0,2.0,58.0,1.0,0.0,0.0,1.0,20.31,66.44758523293392,2.90982279990154,238.24457522403964
A-18,2-methyl-1-phenylpropan-2-yl acetate,"InChI=1S/C12H16O2/c1-10(13)14-12(2,3)9-11-7-5-4-6-8-11/h4-8H,9H2,1-3H3",FLUWAIIVLCVEKF-UHFFFAOYSA-N,CC(=O)OC(C)(C)Cc1ccccc1,-2.3946499685,0.0,1,G1,192.25800000000004,2.570800000000001,55.99100000000004,14.0,2.0,0.0,2.0,3.0,76.0,1.0,0.0,0.0,1.0,26.3,84.89612313542727,2.633870023427366,301.3575848525983
A-22,5-methoxy-1-[4-(trifluoromethyl)phenyl]pentan-1-one,"InChI=1S/C13H15F3O2/c1-18-9-3-2-4-12(17)10-5-7-11(8-6-10)13(14,15)16/h5-8H,2-4,9H2,1H3",VYKSRLDHXQURKA-UHFFFAOYSA-N,COCCCCC(=O)c1ccc(C(F)(F)F)cc1,-3.5440597007999997,0.0,1,G1,260.255,3.7048000000000023,61.50150000000003,18.0,2.0,0.0,5.0,6.0,100.0,1.0,0.0,0.0,1.0,26.3,103.75767145860256,2.542670430809308,382.2179844419697
A-24,2-(4-chloro-2-methylphenoxy)propanoic acid,"InChI=1S/C10H11ClO3/c1-6-5-8(11)3-4-9(6)14-7(2)10(12)13/h3-5,7H,1-2H3,(H,12,13)",WNTGYJSOUMFZEP-UHFFFAOYSA-N,Cc1cc(Cl)ccc1OC(C)C(=O)O,-2.4660307863,0.0606208768005135,4,G5,214.64799999999997,2.500319999999999,53.91480000000002,14.0,2.0,1.0,4.0,3.0,76.0,1.0,0.0,0.0,1.0,46.53,87.26373888571173,2.817664884623791,349.2203893594689
A-26,1-chloro-3-(trifluoromethyl)benzene,"InChI=1S/C7H4ClF3/c8-6-3-1-2-5(4-6)7(9,10)11/h1-4H",YTCGOUNVIAWCMG-UHFFFAOYSA-N,FC(F)(F)c1cccc(Cl)c1,-3.4115138849,0.0,1,G1,180.556,3.3588000000000005,36.454000000000015,11.0,0.0,0.0,4.0,0.0,60.0,1.0,0.0,0.0,1.0,0.0,66.59621766955395,3.0599016922179834,254.10775327612672
A-32,3-[2-(ethylamino)-1-hydroxyethyl]phenol,"InChI=1S/C10H15NO2/c1-2-11-7-10(13)8-4-3-5-9(12)6-8/h3-6,10-13H,2,7H2,1H3",SQVIAVUSQAWMKL-UHFFFAOYSA-N,CCNCC(O)c1cccc(O)c1,-3.4541026398000003,0.0,1,G1,181.235,1.0351,51.61030000000003,13.0,3.0,3.0,3.0,4.0,72.0,1.0,0.0,0.0,1.0,52.489999999999995,78.02950126508347,2.5971508214906804,262.8565878189707
A-34,"2,4-dichloro-1-(chloromethyl)benzene","InChI=1S/C7H5Cl3/c8-4-5-1-2-6(9)3-7(5)10/h1-3H,4H2",IRSVDHPYXFLLDS-UHFFFAOYSA-N,ClCc1ccc(Cl)cc1Cl,-3.5129421932,0.0,1,G1,195.476,3.7322000000000015,46.01900000000001,10.0,0.0,0.0,3.0,1.0,54.0,1.0,0.0,0.0,1.0,0.0,74.70614391453859,3.0699827149988397,232.29287048965844
A-47,2-phenoxyethyl prop-2-enoate,"InChI=1S/C11H12O3/c1-2-11(12)14-9-8-13-10-6-4-3-5-7-10/h2-7H,1,8-9H2",RZVINYQDSSQUKO-UHFFFAOYSA-N,C=CC(=O)OCCOc1ccccc1,-2.5636257131,0.2279659778,2,G3,192.21400000000003,1.7946,53.09300000000003,14.0,3.0,0.0,3.0,5.0,74.0,1.0,0.0,0.0,1.0,35.53,82.95512321835328,2.1621432588559366,292.660770563408
A-53,"4-(4,6-dimethylheptan-2-yl)phenol; 4-(5,6-dimethylheptan-2-yl)phenol; 4-(5,6-dimethylheptyl)phenol; 4-(7-methyloctyl)phenol","InChI=1S/C15H24O/c1-13(2)7-5-3-4-6-8-14-9-11-15(16)12-10-14/h9-13,16H,3-8H2,1-2H3",JSFITYFUKSFPBZ-UHFFFAOYSA-N,CC(C)CCCCCCc1ccc(O)cc1,-4.587250024599999,0.0,1,G1,220.356,4.541200000000005,69.73380000000004,16.0,1.0,1.0,1.0,7.0,90.0,1.0,0.0,0.0,1.0,20.23,99.51011590126248,2.0485825635453776,273.9913549938148
A-54,"1,3-bis(prop-1-en-2-yl)benzene","InChI=1S/C12H14/c1-9(2)11-6-5-7-12(8-11)10(3)4/h5-8H,1,3H2,2,4H3",IBVPVTPPYGGAEL-UHFFFAOYSA-N,C=C(C)c1cccc(C(=C)C)c1,-4.4511392251999995,0.0,1,G1,158.24399999999994,3.7528000000000024,55.85800000000003,12.0,0.0,0.0,0.0,2.0,62.0,1.0,0.0,0.0,1.0,0.0,74.24184974150809,3.121805775248301,289.31512465051037
A-58,1-tert-butyl-4-methylbenzene,"InChI=1S/C11H16/c1-9-5-7-10(8-6-9)11(2,3)4/h5-8H,1-4H3",QCWXDVFBZVHKLV-UHFFFAOYSA-N,Cc1ccc(C(C)(C)C)cc1,-4.4720217682,0.0484550064999997,2,G3,148.249,3.2925200000000014,49.87900000000003,11.0,0.0,0.0,0.0,0.0,60.0,1.0,0.0,0.0,1.0,0.0,69.25611369147998,2.993754788259927,223.21037742768323
A-79,ethenyl benzoate,"InChI=1S/C9H8O2/c1-2-11-9(10)8-6-4-3-5-7-8/h2-7H,1H2",KOZCZZVUFDCZGG-UHFFFAOYSA-N,C=COC(=O)c1ccccc1,-2.6229591952,0.0,1,G1,148.16099999999997,1.9869,42.054500000000026,11.0,2.0,0.0,2.0,2.0,56.0,1.0,0.0,0.0,1.0,26.3,65.11169376005317,2.7666051691783182,251.52506007307375
A-80,methyl 4-tert-butylbenzoate,"InChI=1S/C12H16O2/c1-12(2,3)10-7-5-9(6-8-10)11(13)14-4/h5-8H,1-4H3",UPIJOAFHOIWPLT-UHFFFAOYSA-N,COC(=O)c1ccc(C(C)(C)C)cc1,-3.7398163758,0.0,1,G1,192.258,2.7707000000000015,56.48150000000004,14.0,2.0,0.0,2.0,1.0,76.0,1.0,0.0,0.0,1.0,26.3,84.89612313542725,2.9499840415194707,317.1701202996887
A-81,"2,2-dimethyl-3-(3-methylphenyl)propan-1-ol","InChI=1S/C12H18O/c1-10-5-4-6-11(7-10)8-12(2,3)9-13/h4-7,13H,8-9H2,1-3H3",FYMOBFDUZIDKMI-UHFFFAOYSA-N,Cc1cccc(CC(C)(C)CO)c1,-2.8265354685000004,0.0,1,G1,178.275,2.556020000000001,55.74980000000004,13.0,1.0,1.0,1.0,3.0,72.0,1.0,0.0,0.0,1.0,20.23,80.41528955807264,2.743151502071168,276.2078950935822
A-117,2-phenoxyethyl 2-methylprop-2-enoate,"InChI=1S/C12H14O3/c1-10(2)12(13)15-9-8-14-11-6-4-3-5-7-11/h3-7H,1,8-9H2,2H3",CEXQWAAGPPNOQF-UHFFFAOYSA-N,C=C(C)C(=O)OCCOc1ccccc1,-2.9526471698,0.0,1,G1,206.241,2.1847000000000003,57.71000000000003,15.0,3.0,0.0,3.0,5.0,80.0,1.0,0.0,0.0,1.0,35.53,89.32006533274989,2.177249866158138,329.98028532933694