ID,Name,InChI,InChIKey,SMILES,Solubility,SD,Occurrences,Group,MolWt,MolLogP,MolMR,HeavyAtomCount,NumHAcceptors,NumHDonors,NumHeteroatoms,NumRotatableBonds,NumValenceElectrons,NumAromaticRings,NumSaturatedRings,NumAliphaticRings,RingCount,TPSA,LabuteASA,BalabanJ,BertzCT
A-2463,"[(2R,3R)-5,7-dihydroxy-2-(3,4,5-trihydroxyphenyl)chroman-3-yl] 3,4,5-trihydroxybenzoate","InChI=1S/C22H18O11/c23-10-5-12(24)11-7-18(33-22(31)9-3-15(27)20(30)16(28)4-9)21(32-17(11)6-10)8-1-13(25)19(29)14(26)2-8/h1-6,18,21,23-30H,7H2/t18-,21-/m1/s1",WMBWREPUVVBILR-WIYYLYMNSA-N,O=C(O[C@@H]1Cc2c(O)cc(O)cc2O[C@@H]1c1cc(O)c(O)c(O)c1)c1cc(O)c(O)c(O)c1,-1.0591609316,0.0,1,G1,458.37500000000017,2.2332,108.92089999999996,33.0,11.0,8.0,11.0,3.0,172.0,3.0,0.0,1.0,4.0,197.37,184.74201141230787,1.7472605732203803,1221.4274042533714
A-4528,aziridine,"InChI=1S/C2H5N/c1-2-3-1/h3H,1-2H2",NOWKCMXCCJGMRR-UHFFFAOYSA-N,C1CN1,1.3658352118,0.0,1,G1,43.069,-0.4104,12.869700000000002,3.0,1.0,1.0,1.0,0.0,18.0,0.0,1.0,1.0,1.0,21.94,19.64822417230497,2.25,7.509775004326937
B-183,2-methylaziridine,"InChI=1S/C3H7N/c1-3-2-4-3/h3-4H,2H2,1H3",OZDGMOYKSFPLSE-UHFFFAOYSA-N,CC1CN1,1.2434,0.0,1,G1,57.096,-0.0218999999999999,17.464700000000004,4.0,1.0,1.0,1.0,0.0,24.0,0.0,1.0,1.0,1.0,21.94,26.01316628670158,2.171098317873574,22.46439344671015
B-3024,fluotrimazole,"InChI=1S/C22H16F3N3/c23-22(24,25)20-13-7-12-19(14-20)21(28-16-26-15-27-28,17-8-3-1-4-9-17)18-10-5-2-6-11-18/h1-16H",LXMQMMSGERCRSU-UHFFFAOYSA-N,FC(F)(F)c1cccc(C(c2ccccc2)(c2ccccc2)n2cncn2)c1,-8.402999999999999,0.0,1,G1,379.3850000000001,5.137100000000003,99.63,28.0,3.0,0.0,6.0,4.0,140.0,4.0,0.0,0.0,4.0,30.71,159.65605761316831,2.1038401951979053,1003.8542600741192
F-36,"9H-Pyrido[3,4-B]indole","InChI=1S/C11H8N2/c1-2-4-10-8(3-1)9-5-6-12-7-11(9)13-10/h1-7,13H",AIFRHYZBTHREPW-UHFFFAOYSA-N,c1ccc2c(c1)[nH]c1cnccc12,-3.73,0.0,1,G1,168.199,2.7161,53.59970000000001,13.0,1.0,1.0,2.0,0.0,62.0,3.0,0.0,0.0,3.0,28.68,75.2235405849282,2.642438259907001,515.8499381135529
F-70,"1-Methyl-9H-pyrido[3,4-b]indole","InChI=1S/C12H10N2/c1-8-12-10(6-7-13-8)9-4-2-3-5-11(9)14-12/h2-7,14H,1H3",PSFDQSOCUJVVGF-UHFFFAOYSA-N,Cc1nccc2c1[nH]c1ccccc12,-3.79,0.0,1,G1,182.226,3.0245200000000008,58.33670000000002,14.0,1.0,1.0,2.0,0.0,68.0,3.0,0.0,0.0,3.0,28.68,81.58848269932481,2.632728847245612,607.8208026305191
F-222,"7-Methoxy-1-methyl-9H-pyrido[3,4-b]indole","InChI=1S/C13H12N2O/c1-8-13-11(5-6-14-8)10-4-3-9(16-2)7-12(10)15-13/h3-7,15H,1-2H3",BXNJHAXVSOCGBA-UHFFFAOYSA-N,COc1ccc2c(c1)[nH]c1c(C)nccc12,-4.48,0.0,1,G1,212.252,3.033120000000001,64.88870000000001,16.0,2.0,1.0,3.0,1.0,80.0,3.0,0.0,0.0,3.0,37.91,93.06697004322828,2.452576266702656,670.0549893020406
F-999,"6-methoxy-3,3,12-trimethylchromeno[5,6-b][1,8]naphthyridin-7-one","InChI=1S/C19H18N2O3/c1-19(2)8-7-11-13(24-19)10-14(23-4)15-16(11)21(3)18-12(17(15)22)6-5-9-20-18/h5-10H,1-4H3",ZATMUICSCHNCFK-UHFFFAOYSA-N,COc1cc2c(c3c1c(=O)c1cccnc1n3C)C=CC(C)(C)O2,-3.96,0.0,1,G1,322.364,3.2795000000000014,94.78300000000004,24.0,5.0,0.0,5.0,1.0,122.0,3.0,0.0,1.0,4.0,53.35,138.691772805576,2.26222236384949,1077.585146741672
C-589,"2',3'-dideoxyinosine;  didanosine","InChI=1S/C10H12N4O3/c15-3-6-1-2-7(17-6)14-5-13-8-9(14)11-4-12-10(8)16/h4-7,15H,1-3H2,(H,11,12,16)",BXZVVICBKDXVGW-UHFFFAOYSA-N,O=c1[nH]cnc2c1ncn2C1CCC(CO)O1,-0.94,0.0,1,G1,236.231,-0.2105,58.37850000000002,17.0,6.0,2.0,7.0,2.0,90.0,2.0,1.0,1.0,3.0,93.03,96.0793240018818,2.0160134417522895,590.4936898575354
C-1364,guanosine,"InChI=1S/C10H13N5O5/c11-10-13-7-4(8(19)14-10)12-2-15(7)9-6(18)5(17)3(1-16)20-9/h2-3,5-6,9,16-18H,1H2,(H3,11,13,14,19)",NYHBQMYGNKIUIF-UHFFFAOYSA-N,Nc1nc2c(ncn2C2OC(CO)C(O)C2O)c(=O)[nH]1,-2.74,0.0,1,G1,283.24399999999997,-2.6867000000000005,65.57050000000001,20.0,9.0,5.0,10.0,2.0,108.0,2.0,1.0,1.0,3.0,159.51,111.00768220328654,2.0942646460475807,696.8934057944765
A-1689,"N-octyl-1-{10-[4-(octylimino)-1,4-dihydropyridin-1-yl]decyl}-1,4-dihydropyridin-4-imine dihydrochloride","InChI=1S/C36H62N4.2ClH/c1-3-5-7-9-15-19-27-37-35-23-31-39(32-24-35)29-21-17-13-11-12-14-18-22-30-40-33-25-36(26-34-40)38-28-20-16-10-8-6-4-2;;/h23-26,31-34H,3-22,27-30H2,1-2H3;2*1H",SMGTYJPMKXNQFY-UHFFFAOYSA-N,CCCCCCCCN=c1ccn(CCCCCCCCCCn2ccc(=NCCCCCCCC)cc2)cc1.[Cl-].[Cl-].[H+].[H+],-1.6427862658,0.0,1,G1,623.8420000000001,3.8660000000000063,175.63599999999946,42.0,4.0,0.0,6.0,25.0,242.0,2.0,0.0,0.0,2.0,34.58,273.9026594507667,-4.202495679629652e-06,874.096449753162
F-1091,"2-[2-(furan-2-yl)benzimidazol-1-yl]-5-(hydroxymethyl)oxolane-3,4-diol","InChI=1S/C16H16N2O5/c19-8-12-13(20)14(21)16(23-12)18-10-5-2-1-4-9(10)17-15(18)11-6-3-7-22-11/h1-7,12-14,16,19-21H,8H2",TWMNUUAIOLTJCK-UHFFFAOYSA-N,OCC1OC(n2c(-c3ccco3)nc3ccccc32)C(O)C1O,-2.92,0.0,1,G1,316.31300000000005,0.9077999999999996,80.44440000000003,23.0,7.0,3.0,7.0,3.0,120.0,3.0,1.0,1.0,4.0,100.88,130.9183969144779,1.900978369170386,813.1097517933624
A-5365,potassium dibenzyl phosphate,"InChI=1S/C14H15O4P.K/c15-19(16,17-11-13-7-3-1-4-8-13)18-12-14-9-5-2-6-10-14;/h1-10H,11-12H2,(H,15,16);/q;+1/p-1",MTTPUPNRZRSDDM-UHFFFAOYSA-M,O=P([O-])(OCc1ccccc1)OCc1ccccc1.[K+],0.499854127,0.0,1,G1,316.334,-0.1075999999999992,70.06850000000004,20.0,4.0,0.0,6.0,6.0,100.0,2.0,0.0,0.0,2.0,58.59,160.71188113540163,1.9999985042511503e-06,500.1150659922978
A-5043,"ethyl 1-(4-methoxyphenyl)-7-oxo-6-[4-(2-oxopiperidin-1-yl)phenyl]-1H,4H,5H,6H,7H-pyrazolo[3,4-c]pyridine-3-carboxylate","InChI=1S/C27H28N4O5/c1-3-36-27(34)24-22-15-17-30(19-9-7-18(8-10-19)29-16-5-4-6-23(29)32)26(33)25(22)31(28-24)20-11-13-21(35-2)14-12-20/h7-14H,3-6,15-17H2,1-2H3",PULNLYVCJSOXKS-UHFFFAOYSA-N,CCOC(=O)c1nn(-c2ccc(OC)cc2)c2c1CCN(c1ccc(N3CCCCC3=O)cc1)C2=O,-4.6282058436,0.0,1,G1,488.5440000000005,3.777400000000003,134.099,36.0,7.0,0.0,9.0,6.0,186.0,3.0,1.0,2.0,5.0,93.96999999999996,208.75179215383852,1.4984720169334529,1296.9482506812485
B-2570,"propanoic acid, 3-hydroxy-2-methyl-, 2,3,3a,4,5,","InChI=1S/C19H26O6/c1-11-5-4-6-14(10-21)8-16-17(13(3)19(23)25-16)15(7-11)24-18(22)12(2)9-20/h5,8,12,15-17,20-21H,3-4,6-7,9-10H2,1-2H3/b11-5+,14-8-/t12?,15-,16+,17+/m0/s1",VOOFFTMORIBISQ-UMRVURNHSA-N,C=C1C(=O)O[C@@H]2/C=C(\CO)CC/C=C(\C)C[C@H](OC(=O)C(C)CO)[C@@H]12,-2.2436,0.0,1,G1,350.4110000000001,1.6732999999999998,91.41660000000005,25.0,6.0,2.0,6.0,4.0,138.0,0.0,1.0,2.0,2.0,93.06000000000002,147.3663398468506,2.3677383640631535,603.035575168312
A-5253,"pentasodium 7-(2-{4-[(4-{[5-amino-4-sulfonato-2-(2-{4-[2-(sulfonatooxy)ethanesulfonyl]phenyl}diazen-1-yl)phenyl]amino}-6-chloro-1,3,5-triazin-2-yl)amino]-2-(carbamoylamino)phenyl}diazen-1-yl)naphthalene-1,3,6-trisulfonate","InChI=1S/C34H29ClN12O19S6.5Na/c35-31-41-33(43-34(42-31)40-25-14-22(36)29(70(57,58)59)15-26(25)46-44-17-1-4-19(5-2-17)67(49,50)8-7-66-72(63,64)65)38-18-3-6-23(24(11-18)39-32(37)48)45-47-27-13-21-16(10-30(27)71(60,61)62)9-20(68(51,52)53)12-28(21)69(54,55)56;;;;;/h1-6,9-15H,7-8,36H2,(H3,37,39,48)(H,51,52,53)(H,54,55,56)(H,57,58,59)(H,60,61,62)(H,63,64,65)(H2,38,40,41,42,43);;;;;/q;5*+1/p-5",TWIRQKNQTOUPOY-UHFFFAOYSA-I,NC(=O)Nc1cc(Nc2nc(Cl)nc(Nc3cc(N)c(S(=O)(=O)[O-])cc3N=Nc3ccc(S(=O)(=O)CCOS(=O)(=O)[O-])cc3)n2)ccc1N=Nc1cc2c(S(=O)(=O)[O-])cc(S(=O)(=O)[O-])cc2cc1S(=O)(=O)[O-].[Na+].[Na+].[Na+].[Na+].[Na+],-0.5105575438000001,0.0,1,G1,1247.436,-12.04410000000002,240.20169999999985,77.0,29.0,5.0,43.0,18.0,382.0,6.0,0.0,0.0,6.0,522.6800000000001,551.9410523733848,5.9289920774810235e-06,4009.54766752834
B-4450,2-ethyl-2-phenylgluterimide,"InChI=1S/C13H15NO2/c1-2-13(10-6-4-3-5-7-10)9-8-11(15)14-12(13)16/h3-7H,2,8-9H2,1H3,(H,14,15,16)",JMBQKKAJIKAWKF-UHFFFAOYSA-N,CCC1(c2ccccc2)CCC(=O)NC1=O,-2.3374,0.0,1,G1,217.268,1.771,60.794700000000034,16.0,2.0,1.0,3.0,2.0,84.0,1.0,1.0,1.0,2.0,46.17,94.85307315043958,2.4002434981758296,413.2005875857414
C-1926,1-(hydroxymethyl)glutethimide,"InChI=1S/C14H17NO3/c1-2-14(11-6-4-3-5-7-11)9-8-12(17)15(10-16)13(14)18/h3-7,16H,2,8-10H2,1H3",RSSILZKLNLKCFH-UHFFFAOYSA-N,CCC1(c2ccccc2)CCC(=O)N(CO)C1=O,-1.66,0.0,1,G1,247.294,1.4332,66.58380000000004,18.0,3.0,1.0,4.0,3.0,96.0,1.0,1.0,1.0,2.0,57.61000000000001,106.22222050362754,2.4452453810918366,457.3667252520632
A-1420,"1-(2,3,8,8-tetramethyl-1,3,4,5,6,7-hexahydronaphthalen-2-yl)ethanone","InChI=1S/C16H26O/c1-11-9-13-7-6-8-15(3,4)14(13)10-16(11,5)12(2)17/h11H,6-10H2,1-5H3",FVUGZKDGWGKCFE-UHFFFAOYSA-N,CC(=O)C1(C)CC2=C(CCCC2(C)C)CC1C,-4.9417913147000005,0.0,1,G1,234.38299999999992,4.518300000000004,71.84400000000005,17.0,1.0,0.0,1.0,1.0,96.0,0.0,0.0,2.0,2.0,17.07,105.67363950457973,2.4030862204000023,374.98641735779813
I-11,atropine,"InChI=1S/C17H23NO3/c1-18-13-7-8-14(18)10-15(9-13)21-17(20)16(11-19)12-5-3-2-4-6-12/h2-6,13-16,19H,7-11H2,1H3/t13-,14+,15+,16?",RKUNBYITZUJHSG-SPUOUPEWSA-N,CN1[C@@H]2CC[C@H]1C[C@@H](OC(=O)C(CO)c1ccccc1)C2,-2.0,0.0,1,G1,289.375,1.9309,79.95580000000005,21.0,4.0,1.0,4.0,4.0,114.0,1.0,2.0,2.0,3.0,49.77,125.26323882275126,1.632677623313254,476.06840462966727
A-2677,"10,13-dimethyl-17-(2-methyl-1,3-dioxolan-2-yl)-1,2,4,9,10,11,12,13,14,15,16,17-dodecahydrospiro[cyclopenta[a]phenanthrene-3,2'-[1,3]dioxolane]","InChI=1S/C25H36O4/c1-22-10-11-25(28-14-15-29-25)16-17(22)4-5-18-19-6-7-21(24(3)26-12-13-27-24)23(19,2)9-8-20(18)22/h4-5,19-21H,6-16H2,1-3H3",CFZNXPSHLNMZGD-UHFFFAOYSA-N,CC1(C2CCC3C4=CC=C5CC6(CCC5(C)C4CCC32C)OCCO6)OCCO1,-6.7001197149000005,0.0,1,G1,400.55900000000025,4.991600000000005,110.11300000000006,29.0,4.0,0.0,4.0,1.0,160.0,0.0,5.0,6.0,6.0,36.92,174.5378497058318,1.326371087356619,756.7850441143318
C-850,"5,5-diphenylbarbituric  acid","InChI=1S/C16H12N2O3/c19-13-16(11-7-3-1-4-8-11,12-9-5-2-6-10-12)14(20)18-15(21)17-13/h1-10H,(H2,17,18,19,20,21)",IKVPZYAOGOJTLK-UHFFFAOYSA-N,O=C1NC(=O)C(c2ccccc2)(c2ccccc2)C(=O)N1,-4.2,0.0,1,G1,280.283,1.3386999999999998,75.34540000000004,21.0,3.0,2.0,5.0,2.0,104.0,2.0,1.0,1.0,3.0,75.27,120.5267252969656,2.2808903274581502,649.316652299741
C-2575,gamma-cyclodextrin,"InChI=1S/C48H80O40/c49-1-9-33-17(57)25(65)41(73-9)82-34-10(2-50)75-43(27(67)19(34)59)84-36-12(4-52)77-45(29(69)21(36)61)86-38-14(6-54)79-47(31(71)23(38)63)88-40-16(8-56)80-48(32(72)24(40)64)87-39-15(7-55)78-46(30(70)22(39)62)85-37-13(5-53)76-44(28(68)20(37)60)83-35-11(3-51)74-42(81-33)26(66)18(35)58/h9-72H,1-8H2",GDSRMADSINPKSL-UHFFFAOYSA-N,OCC1OC2OC3C(CO)OC(OC4C(CO)OC(OC5C(CO)OC(OC6C(CO)OC(OC7C(CO)OC(OC8C(CO)OC(OC9C(CO)OC(OC1C(O)C2O)C(O)C9O)C(O)C8O)C(O)C7O)C(O)C6O)C(O)C5O)C(O)C4O)C(O)C3O,-0.75,0.0537345606999999,2,G3,1297.1280000000013,-17.406399999999984,261.06719999999956,88.0,40.0,24.0,40.0,8.0,512.0,0.0,30.0,30.0,30.0,633.2000000000004,495.71738374752147,0.975393516346852,1704.4130590253585
B-82,sulfaquinoxaline,"InChI=1S/C14H12N4O2S/c15-10-5-7-11(8-6-10)21(19,20)18-14-9-16-12-3-1-2-4-13(12)17-14/h1-9H,15H2,(H,17,18)",NHZLNPMOSADWGC-UHFFFAOYSA-N,Nc1ccc(S(=O)(=O)Nc2cnc3ccccc3n2)cc1,-4.6026,0.0,1,G1,300.343,2.0128,81.20090000000002,21.0,5.0,2.0,7.0,3.0,106.0,3.0,0.0,0.0,3.0,97.97,121.25998659222506,1.9473573765384264,892.2508874958666
B-718,hydrazobenzene,"InChI=1S/C12H12N2/c1-3-7-11(8-4-1)13-14-12-9-5-2-6-10-12/h1-10,13-14H",YBQZXXMEJHZYMB-UHFFFAOYSA-N,c1ccc(NNc2ccccc2)cc1,-2.9210000000000003,0.0,1,G1,184.242,3.1256000000000013,60.129400000000025,14.0,2.0,2.0,2.0,3.0,70.0,2.0,0.0,0.0,2.0,24.06,83.55835771301207,1.957475895987533,330.55201670962913
A-3216,"(5R)-5-[(1S)-1,2-dihydroxyethyl]-4-ethoxy-3-hydroxy-5H-furan-2-one","InChI=1S/C8H12O6/c1-2-13-7-5(11)8(12)14-6(7)4(10)3-9/h4,6,9-11H,2-3H2,1H3/t4-,6+/m0/s1",ZGSCRDSBTNQPMS-UJURSFKZSA-N,CCOC1=C(O)C(=O)O[C@@H]1[C@@H](O)CO,0.5809706515999999,0.0662607834962656,3,G5,204.178,-0.9289000000000004,44.25340000000002,14.0,6.0,3.0,6.0,4.0,80.0,0.0,0.0,1.0,1.0,96.22,80.36972545853787,2.83906727642114,258.55711902130685
C-343,ascorbic  acid;  vitamin c,"InChI=1S/C6H8O6/c7-1-2(8)5-3(9)4(10)6(11)12-5/h2,5,7-10H,1H2",CIWBSHSKHKDKBQ-UHFFFAOYSA-N,O=C1OC(C(O)CO)C(O)=C1O,0.28,0.545,2,G2,176.124,-1.4074,35.25619999999999,12.0,6.0,4.0,6.0,2.0,68.0,0.0,0.0,1.0,1.0,107.22,67.32052975243379,2.796067066263468,232.19280948873623
A-3532,"2,6-diamino-1,4-dihydropyrimidin-4-one","InChI=1S/C4H6N4O/c5-2-1-3(9)8-4(6)7-2/h1H,(H5,5,6,7,8,9)",SWELIMKTDYHAOY-UHFFFAOYSA-N,Nc1cc(=O)nc(N)[nH]1,-1.378146596,0.0,1,G1,126.119,-1.0657000000000003,33.6825,9.0,4.0,3.0,5.0,0.0,48.0,1.0,0.0,0.0,1.0,97.79,50.71200257545919,3.332334626732985,242.26529978753476
B-2129,dimethirimol,"InChI=1S/C11H19N3O/c1-5-6-7-9-8(2)12-11(14(3)4)13-10(9)15/h5-7H2,1-4H3,(H,12,13,15)",CJHXCRMKMMBYJQ-UHFFFAOYSA-N,CCCCc1c(C)[nH]c(N(C)C)nc1=O,-2.2416,0.0,1,G1,209.293,1.48692,62.53370000000003,15.0,3.0,1.0,4.0,4.0,84.0,1.0,0.0,0.0,1.0,48.99,90.34664965241338,3.0460833949315185,381.90969078908626
D-2028,ethyrimol,"InChI=1S/C11H19N3O/c1-4-6-7-9-8(3)13-11(12-5-2)14-10(9)15/h4-7H2,1-3H3,(H2,12,13,14,15)",BBXXLROWFHWFQY-UHFFFAOYSA-N,CCCCc1c(C)[nH]c(NCC)nc1=O,-3.02,0.0649999999999999,2,G3,209.293,1.85272,62.370400000000025,15.0,3.0,2.0,4.0,5.0,84.0,1.0,0.0,0.0,1.0,57.78,90.13667816581804,2.9373311083141993,370.5860503155157
F-540,2-(phenyl-(phenylmethylsulfanylcarbothioyl)amino)acetic acid,"InChI=1S/C16H15NO2S2/c18-15(19)11-17(14-9-5-2-6-10-14)16(20)21-12-13-7-3-1-4-8-13/h1-10H,11-12H2,(H,18,19)",QJYFZGZQJOGQTO-UHFFFAOYSA-N,O=C(O)CN(C(=S)SCc1ccccc1)c1ccccc1,-3.92,0.0,1,G1,317.435,3.7959000000000023,91.75880000000002,21.0,3.0,1.0,5.0,5.0,108.0,2.0,0.0,0.0,2.0,40.54,133.14574557816076,2.0603369865098737,602.188745746701
C-2463,midazolam,"InChI=1S/C18H13ClFN3/c1-11-21-9-13-10-22-18(14-4-2-3-5-16(14)20)15-8-12(19)6-7-17(15)23(11)13/h2-9H,10H2,1H3",DDLIGBOFAVUZHB-UHFFFAOYSA-N,Cc1ncc2n1-c1ccc(Cl)cc1C(c1ccccc1F)=NC2,-4.13,0.0,1,G1,325.77400000000006,4.324220000000003,89.05400000000003,23.0,3.0,0.0,5.0,1.0,114.0,3.0,0.0,1.0,4.0,30.18,137.63749072550982,2.0274961737508215,943.1897985853424
A-2922,"disodium 4-amino-3,6-bis[(E)-2-{4-[(E)-2-(2,4-diaminophenyl)diazen-1-yl]phenyl}diazen-1-yl]-5-hydroxynaphthalene-2,7-disulfonate","InChI=1S/C34H29N13O7S2.2Na/c35-18-1-11-26(24(37)15-18)44-40-20-3-7-22(8-4-20)42-46-32-28(55(49,50)51)13-17-14-29(56(52,53)54)33(34(48)30(17)31(32)39)47-43-23-9-5-21(6-10-23)41-45-27-12-2-19(36)16-25(27)38;;/h1-16,43H,35-39H2,(H,49,50,51)(H,52,53,54);;/q;2*+1/p-2/b44-40?,45-41?,46-42?,47-33-;;",WYURLZIZBYCORX-DMVGOSKESA-L,Nc1ccc(N=Nc2ccc(N=Nc3c(S(=O)(=O)[O-])cc4c(c3N)C(=O)/C(=N\Nc3ccc(N=Nc5ccc(N)cc5N)cc3)C(S(=O)(=O)[O-])=C4)cc2)c(N)c1.[Na+].[Na+],-1.5687181444,0.0,1,G1,839.7880000000001,0.3064000000000043,207.82559999999992,58.0,20.0,6.0,24.0,10.0,284.0,5.0,0.0,1.0,6.0,360.12,374.1248152894088,3.720991941740536e-06,2799.270123399105
A-68,[2-({4-[(E)-2-(2-chloro-4-nitrophenyl)diazen-1-yl]phenyl}(ethyl)amino)ethyl]trimethylazanium chloride,"InChI=1S/C19H25ClN5O2.ClH/c1-5-23(12-13-25(2,3)4)16-8-6-15(7-9-16)21-22-19-11-10-17(24(26)27)14-18(19)20;/h6-11,14H,5,12-13H2,1-4H3;1H/q+1;/p-1",ZFRUNHQZTYGGDY-UHFFFAOYSA-M,CCN(CC[N+](C)(C)C)c1ccc(N=Nc2ccc([N+](=O)[O-])cc2Cl)cc1.[Cl-],-3.0386996230000003,0.0,1,G1,426.3480000000001,2.200100000000001,109.51080000000007,28.0,5.0,0.0,9.0,8.0,152.0,2.0,0.0,0.0,2.0,71.1,176.32884399975933,3.919994885340289e-06,820.0639648889835
A-982,4-[(E)-2-phenyldiazen-1-yl]aniline,"InChI=1S/C12H11N3/c13-10-6-8-12(9-7-10)15-14-11-4-2-1-3-5-11/h1-9H,13H2",QPQKUYVSJWQSDY-UHFFFAOYSA-N,Nc1ccc(N=Nc2ccccc2)cc1,-3.7597030757,0.2801667191506911,3,G5,197.24100000000004,3.6842000000000015,61.47240000000003,15.0,3.0,1.0,3.0,2.0,74.0,2.0,0.0,0.0,2.0,50.739999999999995,88.2751658670628,2.1529892819390977,446.0532648827137
A-1350,"4-[(E)-2-phenyldiazen-1-yl]benzene-1,3-diamine","InChI=1S/C12H12N4/c13-9-6-7-12(11(14)8-9)16-15-10-4-2-1-3-5-10/h1-8H,13-14H2",IWRVPXDHSLTIOC-UHFFFAOYSA-N,Nc1ccc(N=Nc2ccccc2)c(N)c1,-2.9976655605,0.0,1,G1,212.25600000000003,3.2664,65.88480000000003,16.0,4.0,2.0,4.0,2.0,80.0,2.0,0.0,0.0,2.0,76.75999999999999,93.6150565640755,2.2421519865382917,505.682139382656
A-1785,disodium 2-amino-5-[(4-sulphonatophenyl)azo]benzenesulphonate,"InChI=1S/C12H11N3O6S2.2Na/c13-11-6-3-9(7-12(11)23(19,20)21)15-14-8-1-4-10(5-2-8)22(16,17)18;;/h1-7H,13H2,(H,16,17,18)(H,19,20,21);;/q;2*+1/p-2",FPVGTPBMTFTMRT-UHFFFAOYSA-L,Nc1ccc(N=Nc2ccc(S(=O)(=O)[O-])cc2)cc1S(=O)(=O)[O-].[Na+].[Na+],-0.5243236254,0.0,1,G1,401.3330000000001,-4.499599999999996,77.39880000000002,25.0,9.0,1.0,13.0,4.0,122.0,2.0,0.0,0.0,2.0,165.14,188.359237132568,2.87999876945054e-06,976.4101375658846
A-2167,"N,N-diethyl-4-[(E)-2-phenyldiazen-1-yl]aniline","InChI=1S/C16H19N3/c1-3-19(4-2)16-12-10-15(11-13-16)18-17-14-8-6-5-7-9-14/h5-13H,3-4H2,1-2H3",SJJISKLXUJVZOA-UHFFFAOYSA-N,CCN(CC)c1ccc(N=Nc2ccccc2)cc1,-5.9821152675,0.0,1,G1,253.349,4.948200000000004,80.62100000000004,19.0,3.0,0.0,3.0,5.0,98.0,2.0,0.0,0.0,2.0,27.96,114.1548772978399,2.086339079358203,513.4501262125178
A-2271,N-ethyl-N-{2-[1-(2-methylpropoxy)ethoxy]ethyl}-4-[(E)-2-phenyldiazen-1-yl]aniline,"InChI=1S/C22H31N3O2/c1-5-25(15-16-26-19(4)27-17-18(2)3)22-13-11-21(12-14-22)24-23-20-9-7-6-8-10-20/h6-14,18-19H,5,15-17H2,1-4H3",BATVZJPOLFSGTD-UHFFFAOYSA-N,CCN(CCOC(C)OCC(C)C)c1ccc(N=Nc2ccccc2)cc1,-7.0905037661,0.0,1,G1,369.509,5.963500000000006,111.15100000000004,27.0,5.0,0.0,5.0,11.0,146.0,2.0,0.0,0.0,2.0,46.42,162.57162044323326,1.8319596539513563,671.7170623577774
A-2476,methyl 2-({4-[2-(2-cyano-4-nitrophenyl)diazen-1-yl]-3-acetamidophenyl}(2-methoxy-2-oxoethyl)amino)acetate,"InChI=1S/C21H20N6O7/c1-13(28)23-19-9-15(26(11-20(29)33-2)12-21(30)34-3)4-7-18(19)25-24-17-6-5-16(27(31)32)8-14(17)10-22/h4-9H,11-12H2,1-3H3,(H,23,28)",DSYAJHRMVXOBRK-UHFFFAOYSA-N,COC(=O)CN(CC(=O)OC)c1ccc(N=Nc2ccc([N+](=O)[O-])cc2C#N)c(NC(C)=O)c1,-5.1935197379,0.0,1,G1,468.4260000000002,2.992680000000001,118.97810000000004,34.0,11.0,1.0,13.0,9.0,176.0,2.0,0.0,0.0,2.0,176.58999999999995,193.28666221654456,2.4647196216682454,1170.6199751514498
A-2485,"3,3'-[[4-[(2-chloro-4-nitrophenyl)azo]phenyl]imino]bis[propiononitrile]","InChI=1S/C18H15ClN6O2/c19-17-13-16(25(26)27)7-8-18(17)23-22-14-3-5-15(6-4-14)24(11-1-9-20)12-2-10-21/h3-8,13H,1-2,11-12H2",ZXXVVTBKBDDTSE-UHFFFAOYSA-N,N#CCCN(CCC#N)c1ccc(N=Nc2ccc([N+](=O)[O-])cc2Cl)cc1,-4.281954413,0.0,1,G1,382.81100000000015,5.297360000000004,101.39740000000003,27.0,7.0,0.0,9.0,8.0,136.0,2.0,0.0,0.0,2.0,118.67999999999998,160.626162838952,2.1213082213796692,896.9295836484418
A-2486,3-[[2-(acetyloxy)ethyl][4-[(4-nitrophenyl)azo]phenyl]amino]propiononitrile,"InChI=1S/C19H19N5O4/c1-15(25)28-14-13-23(12-2-11-20)18-7-3-16(4-8-18)21-22-17-5-9-19(10-6-17)24(26)27/h3-10H,2,12-14H2,1H3",QLRDACXDRLGLOC-UHFFFAOYSA-N,CC(=O)OCCN(CCC#N)c1ccc(N=Nc2ccc([N+](=O)[O-])cc2)cc1,-4.2803415835,0.0,1,G1,381.39200000000017,4.293380000000004,102.79040000000003,28.0,8.0,0.0,9.0,9.0,144.0,2.0,0.0,0.0,2.0,121.19,161.57032637454887,2.0314541465311517,872.6921528314415
A-2487,"3-[[4-[(2,6-dibromo-4-nitrophenyl)azo]phenyl]ethylamino]propiononitrile","InChI=1S/C17H15Br2N5O2/c1-2-23(9-3-8-20)13-6-4-12(5-7-13)21-22-17-15(18)10-14(24(25)26)11-16(17)19/h4-7,10-11H,2-3,9H2,1H3",MWMJPPMTXZJLIK-UHFFFAOYSA-N,CCN(CCC#N)c1ccc(N=Nc2c(Br)cc([N+](=O)[O-])cc2Br)cc1,-4.3812486892,0.0,1,G1,481.1480000000001,6.275180000000004,107.23140000000004,26.0,6.0,0.0,9.0,7.0,134.0,2.0,0.0,0.0,2.0,94.89,167.30047002748773,2.1875177919216218,839.4423356386459
A-2488,3-[[4-[(2-chloro-4-nitrophenyl)azo]phenyl]ethylamino]propiononitrile,"InChI=1S/C17H16ClN5O2/c1-2-22(11-3-10-19)14-6-4-13(5-7-14)20-21-17-9-8-15(23(24)25)12-16(17)18/h4-9,12H,2-3,11H2,1H3",NPBDWXMKLFBNIW-UHFFFAOYSA-N,CCN(CCC#N)c1ccc(N=Nc2ccc([N+](=O)[O-])cc2Cl)cc1,-4.2526115544,0.0,1,G1,357.8010000000001,5.403580000000004,96.84140000000004,25.0,6.0,0.0,8.0,7.0,128.0,2.0,0.0,0.0,2.0,94.89,149.86864104308668,2.1156703336401,814.7781862699111