ID,Name,InChI,InChIKey,SMILES,Solubility,SD,Occurrences,Group,MolWt,MolLogP,MolMR,HeavyAtomCount,NumHAcceptors,NumHDonors,NumHeteroatoms,NumRotatableBonds,NumValenceElectrons,NumAromaticRings,NumSaturatedRings,NumAliphaticRings,RingCount,TPSA,LabuteASA,BalabanJ,BertzCT
F-762,1-[4-[2-(diaminomethylidene)hydrazinyl]naphthalen-1-yl]iminoguanidine,"InChI=1S/C12H14N8/c13-11(14)19-17-9-5-6-10(18-20-12(15)16)8-4-2-1-3-7(8)9/h1-6H,(H4,13,14,19)(H4,15,16,20)",PHFIHDKUVGCCEG-UHFFFAOYSA-N,N=C(N)NN=C1C=CC(=NNC(=N)N)c2ccccc21,-3.29,0.0,1,G1,270.3,-0.3692599999999992,78.75559999999999,20.0,4.0,6.0,8.0,2.0,102.0,1.0,0.0,1.0,2.0,148.52,114.80674639212444,2.393665964648304,585.6123370461914
A-1714,methyl 1-methyl-4-(propan-2-yl)bicyclo[2.2.2]oct-5-ene-2-carboxylate,"InChI=1S/C14H22O2/c1-10(2)14-7-5-13(3,6-8-14)11(9-14)12(15)16-4/h5,7,10-11H,6,8-9H2,1-4H3",NXAJZPARDMDLKH-UHFFFAOYSA-N,COC(=O)C1CC2(C(C)C)C=CC1(C)CC2,-4.2008661255,0.0,1,G1,222.328,3.1780000000000017,63.87500000000004,16.0,2.0,0.0,2.0,2.0,90.0,0.0,1.0,3.0,3.0,26.3,98.05730050529336,2.3353559949103664,331.62704296885147
F-107,"3-Amino-2-phenyl-1H-1,2,4-triazol-5-one","InChI=1S/C8H8N4O/c9-7-10-8(13)11-12(7)6-4-2-1-3-5-6/h1-5H,(H3,9,10,11,13)",ZJPDGJGMGLILIS-UHFFFAOYSA-N,Nc1nc(=O)[nH]n1-c1ccccc1,-1.7,0.0,1,G1,176.179,0.1427999999999994,48.597100000000005,13.0,4.0,2.0,5.0,1.0,66.0,2.0,0.0,0.0,2.0,76.69999999999999,73.81679156052485,2.589634770118386,456.4963077594637
C-2599,"l-365,209  (analog 6 );  (cyclic hexapeptide)","InChI=1S/C40H54N8O6/c1-4-26(2)34-40(54)48-32(19-12-22-42-48)37(51)43-29(18-11-21-41)38(52)46(3)33(25-28-16-9-6-10-17-28)39(53)47-23-13-20-31(47)36(50)44-30(35(49)45-34)24-27-14-7-5-8-15-27/h5-10,14-17,22,26,29-34H,4,11-13,18-21,23-25,41H2,1-3H3,(H,43,51)(H,44,50)(H,45,49)",JDOMSHIFFAUNHK-UHFFFAOYSA-N,CCC(C)C1NC(=O)C(Cc2ccccc2)NC(=O)C2CCCN2C(=O)C(Cc2ccccc2)N(C)C(=O)C(CCCN)NC(=O)C2CCC=NN2C1=O,-2.7,0.0,1,G1,742.9219999999998,1.519600000000007,203.48049999999944,54.0,8.0,4.0,14.0,9.0,290.0,2.0,2.0,3.0,5.0,186.60999999999996,316.792952432883,1.5859988973607475,1672.6232400761212
C-2485,n1-(1-benzyl-2-oxopyrimidin-4-yl)sulfanilamide;  1-benzyl-4-sulfapyrimidin-2-one,"InChI=1S/C17H16N4O3S/c18-14-6-8-15(9-7-14)25(23,24)20-16-10-11-21(17(22)19-16)12-13-4-2-1-3-5-13/h1-11H,12,18H2,(H,19,20,22)",HLCYDXRGEPUIOB-UHFFFAOYSA-N,Nc1ccc(S(=O)(=O)Nc2ccn(Cc3ccccc3)c(=O)n2)cc1,-4.8,0.0,1,G1,356.40700000000004,1.6745999999999994,95.7039,25.0,6.0,2.0,8.0,5.0,128.0,3.0,0.0,0.0,3.0,107.08,144.37185196758958,1.8087222150735296,1029.4930421498273
A-1077,"2-hydroxy-1,2-diphenylethan-1-one","InChI=1S/C14H12O2/c15-13(11-7-3-1-4-8-11)14(16)12-9-5-2-6-10-12/h1-10,13,15H",ISAOCJYIOMOJEB-UHFFFAOYSA-N,O=C(c1ccccc1)C(O)c1ccccc1,-2.8497223519,0.4851388240499998,2,G3,212.248,2.602900000000001,62.17430000000004,16.0,2.0,1.0,2.0,3.0,80.0,2.0,0.0,0.0,2.0,37.3,94.174137406594,2.2393989303204465,462.6087192277259
B-1882,"ethanone, 2-(4-aminophenyl)-1-phenyl-","InChI=1S/C14H13NO/c15-13-8-6-11(7-9-13)10-14(16)12-4-2-1-3-5-12/h1-9H,10,15H2",XBDWIJCZQWUMMU-UHFFFAOYSA-N,Nc1ccc(CC(=O)c2ccccc2)cc1,-1.805,0.0,1,G1,211.26400000000004,2.6942000000000013,65.33090000000003,16.0,2.0,1.0,2.0,3.0,80.0,2.0,0.0,0.0,2.0,43.09,94.71979435141073,2.1105163490120473,473.8483450839555
B-1889,"ethanone, 1-(4-hydroxyphenyl)-2-phenyl-","InChI=1S/C14H12O2/c15-13-8-6-12(7-9-13)14(16)10-11-4-2-1-3-5-11/h1-9,15H,10H2",JBQTZLNCDIFCCO-UHFFFAOYSA-N,O=C(Cc1ccccc1)c1ccc(O)cc1,-1.5008,0.0,1,G1,212.248,2.8176000000000005,62.58330000000004,16.0,2.0,1.0,2.0,3.0,80.0,2.0,0.0,0.0,2.0,37.3,94.174137406594,2.119180990864876,471.8483450839555
B-2065,"benzoic acid, 2,2'-(1-oxo-1,2-ethanediyl)bis-","InChI=1S/C16H12O5/c17-14(12-7-3-4-8-13(12)16(20)21)9-10-5-1-2-6-11(10)15(18)19/h1-8H,9H2,(H,18,19)(H,20,21)",YPNGOYFSQMSAOZ-UHFFFAOYSA-N,O=C(O)c1ccccc1CC(=O)c1ccccc1C(=O)O,-2.7910000000000004,0.0,1,G1,284.267,2.5084,74.83710000000002,21.0,3.0,2.0,5.0,5.0,106.0,2.0,0.0,0.0,2.0,91.67,120.02129958767078,2.3564076317417757,718.1122046858368
B-3490,ethoxysulfuron,"InChI=1S/C15H18N4O7S/c1-4-25-10-7-5-6-8-11(10)26-27(21,22)19-15(20)18-14-16-12(23-2)9-13(17-14)24-3/h5-9H,4H2,1-3H3,(H2,16,17,18,19,20)",UWVKRNOCDUPIDM-UHFFFAOYSA-N,CCOc1ccccc1OS(=O)(=O)NC(=O)Nc1nc(OC)cc(OC)n1,-4.1853,0.0,1,G1,398.3970000000001,1.3377999999999997,94.44920000000003,27.0,9.0,2.0,12.0,8.0,146.0,2.0,0.0,0.0,2.0,137.97,155.43771101319751,2.0854976198157766,882.5384849157397
A-267,"sodium 2-{2,5-dichloro-4-[(E)-2-(2-methyl-1H-indol-3-yl)diazen-1-yl]benzenesulfonamido}ethane-1-sulfonate","InChI=1S/C17H16Cl2N4O5S2.Na/c1-10-17(11-4-2-3-5-14(11)21-10)23-22-15-8-13(19)16(9-12(15)18)30(27,28)20-6-7-29(24,25)26;/h2-5,8-9,20,22H,6-7H2,1H3,(H,24,25,26);/q;+1/p-1/b23-17+;",IQWBFKOZXPTGNT-YFZNFVDXSA-M,CC1=Nc2ccccc2/C1=N/Nc1cc(Cl)c(S(=O)(=O)NCCS(=O)(=O)[O-])cc1Cl.[Na+],-3.7561795168,0.0928182884499999,2,G3,513.3600000000002,-0.2568999999999997,115.58540000000002,31.0,8.0,2.0,14.0,7.0,160.0,2.0,0.0,1.0,3.0,140.12,211.5772260821171,3.413328344718734e-06,1281.422245029319
F-580,"[4-(furan-2-carbonyl)-2-oxido-1,2,5-oxadiazol-2-ium-3-yl]-furan-2-ylmethanone",InChI=1S/C12H6N2O6/c15-11(7-3-1-5-18-7)9-10(14(17)20-13-9)12(16)8-4-2-6-19-8/h1-6H,CFCYEMMQXVMYQE-UHFFFAOYSA-N,O=C(c1ccco1)c1no[n+]([O-])c1C(=O)c1ccco1,-3.85,0.0,1,G1,274.18800000000005,0.956,59.74400000000001,20.0,7.0,0.0,8.0,4.0,100.0,3.0,0.0,0.0,3.0,113.39,110.28176006443728,2.0634177228860215,754.0878252529661
B-2034,benazolin,"InChI=1S/C9H6ClNO3S/c10-5-2-1-3-6-8(5)11(4-7(12)13)9(14)15-6/h1-3H,4H2,(H,12,13)",HYJSGOXICXYZGS-UHFFFAOYSA-N,O=C(O)Cn1c(=O)sc2cccc(Cl)c21,-2.6087,0.0,1,G1,243.671,1.8010000000000004,58.73080000000001,15.0,4.0,1.0,6.0,2.0,78.0,2.0,0.0,0.0,2.0,59.3,93.33347879714394,2.764855679937048,586.5452489241367
B-2655,benazolin-ethyl,"InChI=1S/C11H10ClNO3S/c1-2-16-9(14)6-13-10-7(12)4-3-5-8(10)17-11(13)15/h3-5H,2,6H2,1H3",WQRCEBAZAUAUQC-UHFFFAOYSA-N,CCOC(=O)Cn1c(=O)sc2cccc(Cl)c21,-3.762,0.0,1,G1,271.7250000000001,2.2795000000000005,67.72800000000002,17.0,5.0,0.0,6.0,3.0,90.0,2.0,0.0,0.0,2.0,48.3,106.382674503248,2.4940706244968784,616.6943358032488
B-2972,"24nh2pyrimidine,5(35-meo-4-oetome)benzyl","InChI=1S/C16H22N4O4/c1-21-4-5-24-14-12(22-2)7-10(8-13(14)23-3)6-11-9-19-16(18)20-15(11)17/h7-9H,4-6H2,1-3H3,(H4,17,18,19,20)",WSWJIZXMAUYHOE-UHFFFAOYSA-N,COCCOc1c(OC)cc(Cc2cnc(N)nc2N)cc1OC,-2.101,0.0,1,G1,334.3760000000001,1.2742,90.57980000000003,24.0,8.0,2.0,8.0,8.0,130.0,2.0,0.0,0.0,2.0,114.74,140.2514082858866,2.3036810897938063,668.7678950436214
B-3009,flurprimidol,"InChI=1S/C15H15F3N2O2/c1-10(2)14(21,12-7-19-9-20-8-12)11-3-5-13(6-4-11)22-15(16,17)18/h3-10,21H,1-2H3",VEVZCONIUDBCDC-UHFFFAOYSA-N,CC(C)C(O)(c1ccc(OC(F)(F)F)cc1)c1cncnc1,-3.4377,0.02885,2,G3,312.29099999999994,3.267100000000002,72.99380000000002,22.0,4.0,1.0,7.0,4.0,118.0,2.0,0.0,0.0,2.0,55.24,125.15688904991865,2.3833827606219,614.9347281236405
B-4507,trimethoprim,"InChI=1S/C14H18N4O3/c1-19-10-5-8(6-11(20-2)12(10)21-3)4-9-7-17-14(16)18-13(9)15/h5-7H,4H2,1-3H3,(H4,15,16,17,18)",IEDVJHCEMCRBQM-UHFFFAOYSA-N,COc1cc(Cc2cnc(N)nc2N)cc(OC)c1OC,-2.8608,0.0446000000000001,2,G3,290.32300000000004,1.2575999999999998,79.76080000000003,21.0,7.0,2.0,7.0,5.0,112.0,2.0,0.0,0.0,2.0,105.51,122.40797882758652,2.3975621374281344,621.1065134129683
A-70,"(1R-(1alpha,2beta,4beta,6alpha))-2,2,7-Trimethyl-3-oxatricyclo(4.1.1.02,4)octane","InChI=1S/C10H16O/c1-9(2)6-4-7(9)10(3)8(5-6)11-10/h6-8H,4-5H2,1-3H3/t6-,7-,8+,10-/m1/s1",NQFUSWIGRKFAHK-BDNRQGISSA-N,CC1(C)[C@H]2C[C@@H]3O[C@]3(C)[C@@H]1C2,-2.5936884915,0.0,1,G1,152.237,2.2099,43.27300000000001,11.0,1.0,0.0,1.0,0.0,62.0,0.0,4.0,4.0,4.0,12.53,68.11978182631822,1.9803152559514368,216.15777938858872
B-3511,imidacloprid,"InChI=1S/C9H10ClN5O2/c10-8-2-1-7(5-12-8)6-14-4-3-11-9(14)13-15(16)17/h1-2,5H,3-4,6H2,(H,11,13)",YWTYJOPNNQFBPC-UHFFFAOYSA-N,O=[N+]([O-])NC1=NCCN1Cc1ccc(Cl)nc1,-2.6223,0.0,1,G1,255.665,0.6879,62.089100000000016,17.0,5.0,1.0,8.0,3.0,90.0,1.0,0.0,1.0,2.0,83.66,102.23638471378864,2.011084008323884,447.2043646861617
C-987,warfarin (hemiketal-isomer),"InChI=1S/C19H16O4/c1-19(21)11-14(12-7-3-2-4-8-12)16-17(23-19)13-9-5-6-10-15(13)22-18(16)20/h2-10,14,21H,11H2,1H3",LSCYDZJASSKSMJ-UHFFFAOYSA-N,CC1(O)CC(c2ccccc2)c2c(c3ccccc3oc2=O)O1,-4.74,0.0,1,G1,308.33299999999997,3.4159000000000015,86.63780000000003,23.0,4.0,1.0,4.0,1.0,116.0,3.0,0.0,1.0,4.0,59.67,132.4982170671091,2.0379726375463783,925.0025196577838
C-2449,coumachlor  (hemiketal isomer),"InChI=1S/C19H15ClO4/c1-19(22)10-14(11-6-8-12(20)9-7-11)16-17(24-19)13-4-2-3-5-15(13)23-18(16)21/h2-9,14,22H,10H2,1H3",ARIFBMNLDCJVSE-UHFFFAOYSA-N,CC1(O)CC(c2ccc(Cl)cc2)c2c(c3ccccc3oc2=O)O1,-5.84,0.0,1,G1,342.778,4.069300000000003,91.64780000000002,24.0,4.0,1.0,5.0,1.0,122.0,3.0,0.0,1.0,4.0,59.67,142.80148329399074,2.0066276911491467,972.8185013146048
B-2516,amicetin,"InChI=1S/C29H42N6O9/c1-15-19(44-26-24(38)23(37)22(34(4)5)16(2)43-26)10-11-21(42-15)35-13-12-20(33-28(35)41)32-25(39)17-6-8-18(9-7-17)31-27(40)29(3,30)14-36/h6-9,12-13,15-16,19,21-24,26,36-38H,10-11,14,30H2,1-5H3,(H,31,40)(H,32,33,39,41)",HDNVYHWHCVTDIV-UHFFFAOYSA-N,CC1OC(n2ccc(NC(=O)c3ccc(NC(=O)C(C)(N)CO)cc3)nc2=O)CCC1OC1OC(C)C(N(C)C)C(O)C1O,-2.4904,0.0,1,G1,618.6880000000001,-0.3766999999999949,158.71469999999985,44.0,13.0,6.0,15.0,9.0,242.0,2.0,2.0,2.0,4.0,210.73,254.46735462019848,1.323776284984192,1367.8466112412257
E-468,nicotine,"InChI=1S/C10H14N2/c1-12-7-3-5-10(12)9-4-2-6-11-8-9/h2,4,6,8,10H,3,5,7H2,1H3",SNICXCGAKADSCV-UHFFFAOYSA-N,CN1CCCC1c1cccnc1,0.79,0.0,1,G1,162.236,1.8483,48.84200000000003,12.0,2.0,0.0,2.0,1.0,64.0,1.0,1.0,1.0,2.0,16.130000000000003,73.22976418910064,2.194591657785846,245.27530899395387
B-3244,oxadixyl,"InChI=1S/C14H18N2O4/c1-10-5-4-6-11(2)13(10)16(12(17)9-19-3)15-7-8-20-14(15)18/h4-6H,7-9H2,1-3H3",UWVQIROCRJWDKL-UHFFFAOYSA-N,COCC(=O)N(c1c(C)cccc1C)N1CCOC1=O,-1.913,0.0,1,G1,278.30800000000005,1.6500399999999995,73.33200000000004,20.0,4.0,0.0,6.0,4.0,108.0,1.0,1.0,1.0,2.0,59.080000000000005,117.3850469008836,2.4550407904661133,509.65523041377065
B-148,cytosine,"InChI=1S/C4H5N3O/c5-3-1-2-6-4(8)7-3/h1-2H,(H3,5,6,7,8)",OPTASPLRGRRNAP-UHFFFAOYSA-N,Nc1ccnc(=O)[nH]1,-1.1426,0.0086999999999999,2,G3,111.104,-0.6479000000000001,29.270099999999996,8.0,3.0,2.0,4.0,0.0,42.0,1.0,0.0,0.0,1.0,71.77,45.37211187844647,3.277417459528498,228.72507399518807
B-1183,2-pyrimidone,"InChI=1S/C4H4N2O/c7-4-5-2-1-3-6-4/h1-3H,(H,5,6,7)",VTGOHKSTWXHQJK-UHFFFAOYSA-N,O=c1nccc[nH]1,0.6749,0.0,1,G1,96.089,-0.2300999999999999,24.85769999999999,7.0,2.0,1.0,3.0,0.0,36.0,1.0,0.0,0.0,1.0,45.75,40.032221181433755,3.27532977603021,175.38621243302316
B-2758,"2(1h)-pyrimidinone, 4-amino-5-ethyl-","InChI=1S/C6H9N3O/c1-2-4-3-8-6(10)9-5(4)7/h3H,2H2,1H3,(H3,7,8,9,10)",CZJGCEGNCSGRBI-UHFFFAOYSA-N,CCc1c[nH]c(=O)nc1N,-1.0197,0.0,1,G1,139.15799999999996,-0.0855,38.64809999999999,10.0,3.0,2.0,4.0,1.0,54.0,1.0,0.0,0.0,1.0,71.77,58.101996107239685,3.194770634674176,278.5665722044581
C-1626,5-methylcytosine,"InChI=1S/C5H7N3O/c1-3-2-7-5(9)8-4(3)6/h2H,1H3,(H3,6,7,8,9)",LRSASMSXMSNRBT-UHFFFAOYSA-N,Cc1c[nH]c(=O)nc1N,-1.44,0.4193787071371173,3,G5,125.131,-0.3394800000000001,34.00709999999999,9.0,3.0,2.0,4.0,0.0,48.0,1.0,0.0,0.0,1.0,71.77,51.73705399284307,3.3360928870055955,265.1507718109345
G-688,Flucytosine,"InChI=1S/C4H4FN3O/c5-2-1-7-4(9)8-3(2)6/h1H,(H3,6,7,8,9)",XRECTZIEBJDKEO-UHFFFAOYSA-N,Nc1nc(=O)[nH]cc1F,-0.972,0.0480964561799262,3,G5,129.09399999999997,-0.5088000000000001,29.228100000000005,9.0,3.0,2.0,5.0,0.0,48.0,1.0,0.0,0.0,1.0,71.77,49.537647281372706,3.3360928870055955,268.7604122853712
B-1529,kebuzone,"InChI=1S/C19H18N2O3/c1-14(22)12-13-17-18(23)20(15-8-4-2-5-9-15)21(19(17)24)16-10-6-3-7-11-16/h2-11,17H,12-13H2,1H3",LGYTZKPVOAIUKX-UHFFFAOYSA-N,CC(=O)CCC1C(=O)N(c2ccccc2)N(c2ccccc2)C1=O,-3.2676,0.0,1,G1,322.36400000000003,2.966800000000001,91.26100000000004,24.0,3.0,0.0,5.0,5.0,122.0,2.0,1.0,1.0,3.0,57.690000000000005,140.01163063358106,2.0078605801681197,701.1960723848598
B-4456,phenylbutazone,"InChI=1S/C19H20N2O2/c1-2-3-14-17-18(22)20(15-10-6-4-7-11-15)21(19(17)23)16-12-8-5-9-13-16/h4-13,17H,2-3,14H2,1H3",VYMDGNCVAMGZFE-UHFFFAOYSA-N,CCCCC1C(=O)N(c2ccccc2)N(c2ccccc2)C1=O,-3.8124,0.8766874218075421,3,G4,308.38100000000003,3.7878000000000025,90.87100000000004,23.0,2.0,0.0,4.0,5.0,118.0,2.0,1.0,1.0,3.0,40.620000000000005,135.85010853353728,2.0215060313567244,627.5305050940952
B-4489,oxyphenbutazone,"InChI=1S/C19H20N2O3/c1-2-3-9-17-18(23)20(14-7-5-4-6-8-14)21(19(17)24)15-10-12-16(22)13-11-15/h4-8,10-13,17,22H,2-3,9H2,1H3",HFHZKZSRXITVMK-UHFFFAOYSA-N,CCCCC1C(=O)N(c2ccccc2)N(c2ccc(O)cc2)C1=O,-3.7329,0.0,1,G1,324.38000000000005,3.493400000000002,92.53580000000002,24.0,3.0,1.0,5.0,5.0,124.0,2.0,1.0,1.0,3.0,60.85000000000001,140.64434228573327,2.0249517771284085,728.0369369106377
A-63,"N,N'-bis(3-phenylprop-2-en-1-ylidene)hexane-1,6-diamine","InChI=1S/C24H28N2/c1(9-19-25-21-11-17-23-13-5-3-6-14-23)2-10-20-26-22-12-18-24-15-7-4-8-16-24/h3-8,11-18,21-22H,1-2,9-10,19-20H2/b17-11+,18-12+,25-21?,26-22?",ATPFMBHTMKBVLS-NCDJPSHJSA-N,C(/C=C/c1ccccc1)=NCCCCCCN=C/C=C/c1ccccc1,-3.8937390711,0.0,1,G1,344.502,6.115200000000006,116.13800000000003,26.0,2.0,0.0,2.0,11.0,134.0,2.0,0.0,0.0,2.0,24.72,157.27924160567198,1.4423245647333978,634.005206577911
I-62,oxytetracycline,"InChI=1S/C22H24N2O9/c1-21(32)7-5-4-6-8(25)9(7)15(26)10-12(21)17(28)13-14(24(2)3)16(27)11(20(23)31)19(30)22(13,33)18(10)29/h4-6,12-14,17,25-28,32-33H,1-3H3,(H2,23,31)/t12-,13-,14+,17+,21-,22+/m1/s1",JLGOGFIHBRJQHY-PXOLEDIWSA-N,CN(C)[C@@H]1C(O)=C(C(N)=O)C(=O)[C@@]2(O)C(=O)C3=C(O)c4c(O)cccc4[C@@](C)(O)[C@H]3[C@H](O)[C@@H]12,-3.09,0.0,1,G1,460.43900000000014,-1.4001999999999992,111.5012,33.0,10.0,7.0,11.0,2.0,176.0,1.0,1.0,3.0,4.0,201.84999999999997,187.22347060540991,2.0862331500391837,1182.3066220599728
B-2678,"3(2h)-isothiazolone, 2-octyl-","InChI=1S/C11H19NOS/c1-2-3-4-5-6-7-9-12-11(13)8-10-14-12/h8,10H,2-7,9H2,1H3",JPMIIZHYYWMHDT-UHFFFAOYSA-N,CCCCCCCCn1sccc1=O,-2.6301,0.0,1,G1,213.346,3.2703000000000024,61.955000000000034,14.0,3.0,0.0,3.0,7.0,80.0,1.0,0.0,0.0,1.0,22.0,89.72353486161234,2.0474970762978213,289.47768015008285
A-3688,"disodium 2,2'-(azodi-p-phenylene)bis[6-methylbenzothiazole-7-sulphonate]","InChI=1S/C28H20N4O6S4.2Na/c1-15-3-13-21-23(25(15)41(33,34)35)39-27(29-21)17-5-9-19(10-6-17)31-32-20-11-7-18(8-12-20)28-30-22-14-4-16(2)26(24(22)40-28)42(36,37)38;;/h3-14H,1-2H3,(H,33,34,35)(H,36,37,38);;/q;2*+1/p-2",GRUAQEWEHJNSDG-UHFFFAOYSA-L,Cc1ccc2nc(-c3ccc(N=Nc4ccc(-c5nc6ccc(C)c(S(=O)(=O)[O-])c6s5)cc4)cc3)sc2c1S(=O)(=O)[O-].[Na+].[Na+],-1.2223096235,0.0,1,G1,680.7220000000002,1.088440000000003,159.68839999999977,44.0,12.0,0.0,16.0,6.0,212.0,6.0,0.0,0.0,6.0,164.89999999999998,304.9467706426629,2.2089970685748265e-06,2106.3984358171356
B-2541,"2-oxabicyclo[2.2.2]octan-6-one, 1,3,3-trimethyl-","InChI=1S/C10H16O2/c1-9(2)7-4-5-10(3,12-9)8(11)6-7/h7H,4-6H2,1-3H3",CCBAAZXPXFYPBE-UHFFFAOYSA-N,CC12CCC(CC1=O)C(C)(C)O2,-0.9249,0.0,1,G1,168.236,1.9231,45.91700000000002,12.0,2.0,0.0,2.0,0.0,68.0,0.0,3.0,3.0,3.0,26.3,73.28713507989121,2.3236287970727183,231.9930785485164
A-2636,"2-[4-(4-oxo-4H-3,1-benzoxazin-2-yl)phenyl]-4H-3,1-benzoxazin-4-one",InChI=1S/C22H12N2O4/c25-21-15-5-1-3-7-17(15)23-19(27-21)13-9-11-14(12-10-13)20-24-18-8-4-2-6-16(18)22(26)28-20/h1-12H,BBITXNWQALLODC-UHFFFAOYSA-N,O=c1oc(-c2ccc(-c3nc4ccccc4c(=O)o3)cc2)nc2ccccc12,-6.5170402935,0.0,1,G1,368.3480000000001,4.023400000000002,104.988,28.0,6.0,0.0,6.0,2.0,134.0,5.0,0.0,0.0,5.0,86.2,157.2808944050941,1.5814985549894447,1337.678418828208
B-207,triamcinolone acetonide,"InChI=1S/C24H31FO6/c1-20(2)30-19-10-16-15-6-5-13-9-14(27)7-8-21(13,3)23(15,25)17(28)11-22(16,4)24(19,31-20)18(29)12-26/h7-9,15-17,19,26,28H,5-6,10-12H2,1-4H3/t15-,16-,17-,19+,21-,22-,23-,24+/m0/s1",YNDXUCZADRHECN-JNQJZLCISA-N,CC1(C)O[C@@H]2C[C@H]3[C@@H]4CCC5=CC(=O)C=C[C@]5(C)[C@@]4(F)[C@@H](O)C[C@]3(C)[C@]2(C(=O)CO)O1,-4.3158,0.0,1,G1,434.50400000000025,2.4188000000000005,108.59860000000003,31.0,6.0,2.0,7.0,2.0,170.0,0.0,4.0,5.0,5.0,93.06000000000002,181.0286953933564,1.6368996691130526,925.0303087134428
B-2173,triamcinolone hexacetonide,"InChI=1S/C30H41FO7/c1-25(2,3)15-24(35)36-16-22(34)30-23(37-26(4,5)38-30)13-20-19-9-8-17-12-18(32)10-11-27(17,6)29(19,31)21(33)14-28(20,30)7/h10-12,19-21,23,33H,8-9,13-16H2,1-7H3/t19-,20-,21-,23+,27-,28-,29-,30+/m0/s1",TZIZWYVVGLXXFV-FLRHRWPCSA-N,CC(C)(C)CC(=O)OCC(=O)[C@@]12OC(C)(C)O[C@@H]1C[C@H]1[C@@H]3CCC4=CC(=O)C=C[C@]4(C)[C@@]3(F)[C@@H](O)C[C@@]12C,-5.1244,0.0,1,G1,532.6490000000002,4.405900000000004,136.5438,38.0,7.0,1.0,8.0,4.0,210.0,0.0,4.0,5.0,5.0,99.13,223.69918165709063,1.511026481335621,1133.9132330640352
F-1013,"8-(4-hydroxybutyl)-4H-thieno[3,2-c][1]benzoxepin-10-one","InChI=1S/C16H16O3S/c17-7-2-1-3-11-4-5-14-13(9-11)15(18)16-12(10-19-14)6-8-20-16/h4-6,8-9,17H,1-3,7,10H2",IPHKVWAKDXKJRE-UHFFFAOYSA-N,O=C1c2cc(CCCCO)ccc2OCc2ccsc21,-3.92,0.0,1,G1,288.36799999999994,3.1865000000000014,78.54930000000003,20.0,4.0,1.0,4.0,4.0,104.0,2.0,0.0,1.0,3.0,46.53,121.3819832105696,1.9057015899383016,630.4022644008302
B-2283,dioxacarb,"InChI=1S/C11H13NO4/c1-12-11(13)16-9-5-3-2-4-8(9)10-14-6-7-15-10/h2-5,10H,6-7H2,1H3,(H,12,13)",SDKQRNRRDYRQKY-UHFFFAOYSA-N,CNC(=O)Oc1ccccc1C1OCCO1,-1.5706,0.0,1,G1,223.22799999999995,1.4502,56.17070000000003,16.0,4.0,1.0,5.0,2.0,86.0,1.0,1.0,1.0,2.0,56.790000000000006,93.30230251012324,2.1896973439825773,374.00224139004183
A-5894,"calcium bis(3-(3-{2-[(1Z)-3-[(4-methoxyphenyl)carbamoyl]-2-oxo-1,2-dihydronaphthalen-1-ylidene]hydrazin-1-yl}-4-methylbenzamido)benzene-1-sulfonate)","InChI=1S/2C32H26N4O7S.Ca/c2*1-19-10-11-21(31(38)34-23-7-5-8-25(18-23)44(40,41)42)17-28(19)35-36-29-26-9-4-3-6-20(26)16-27(30(29)37)32(39)33-22-12-14-24(43-2)15-13-22;/h2*3-18,35H,1-2H3,(H,33,39)(H,34,38)(H,40,41,42);/q;;+2/p-2/b2*36-29-;",MVOVSLDNNBTJIE-CHTASWDYSA-L,COc1ccc(NC(=O)C2=Cc3ccccc3/C(=N/Nc3cc(C(=O)Nc4cccc(S(=O)(=O)[O-])c4)ccc3C)C2=O)cc1.COc1ccc(NC(=O)C2=Cc3ccccc3/C(=N/Nc3cc(C(=O)Nc4cccc(S(=O)(=O)[O-])c4)ccc3C)C2=O)cc1.[Ca+2],-7.050931182699999,0.0,1,G1,1259.358,8.781240000000004,335.2476000000006,89.0,18.0,6.0,25.0,16.0,444.0,8.0,0.0,2.0,10.0,332.17999999999995,539.8844523628132,2.275555410062232e-07,4227.51451087675
B-3418,tebuconazole,"InChI=1S/C16H22ClN3O/c1-15(2,3)16(21,10-20-12-18-11-19-20)9-8-13-4-6-14(17)7-5-13/h4-7,11-12,21H,8-10H2,1-3H3",PXMNMQRDXWABCY-UHFFFAOYSA-N,CC(C)(C)C(O)(CCc1ccc(Cl)cc1)Cn1cncn1,-3.932,0.0,1,G1,307.825,3.3415000000000017,84.19980000000004,21.0,4.0,1.0,5.0,5.0,114.0,2.0,0.0,0.0,2.0,50.94,130.33241565771894,2.1082293986814724,560.2080667316359
A-1855,"1,2,3-trimethylbenzene; 1H-indene; 2,3-dihydro-1H-indene","InChI=1S/C9H10.C9H8.C9H12/c2*1-2-5-9-7-3-6-8(9)4-1;1-7-5-4-6-8(2)9(7)3/h1-2,4-5H,3,6-7H2;1-6H,7H2;4-6H,1-3H3",KDEGXTBNBBKAJX-UHFFFAOYSA-N,C1=Cc2ccccc2C1.Cc1cccc(C)c1C.c1ccc2c(c1)CCC2,-3.51623781,0.1205160330000001,2,G3,354.53700000000003,7.043060000000007,118.30000000000004,27.0,0.0,0.0,0.0,0.0,138.0,3.0,0.0,2.0,5.0,0.0,164.14046752901024,1.1680555470767107e-07,863.3117033513096
D-2004,".alpha.-d-glucofuranose,","InChI=1S/C8H11Cl3O6/c9-8(10,11)7-16-5-3(14)4(2(13)1-12)15-6(5)17-7/h2-7,12-14H,1H2/t2?,3-,4+,5+,6?,7+/m0/s1",OJYGBLRPYBAHRT-OPKHMCHVSA-N,OCC(O)[C@H]1OC2O[C@H](C(Cl)(Cl)Cl)O[C@@H]2[C@H]1O,-1.843,0.0,1,G1,309.529,-0.4628999999999993,57.796400000000034,17.0,6.0,3.0,9.0,2.0,100.0,0.0,2.0,2.0,2.0,88.38000000000001,111.91531914730102,2.0121307465624216,284.92430642566427
B-3498,azoxystrobin,"InChI=1S/C22H17N3O5/c1-27-13-17(22(26)28-2)16-8-4-6-10-19(16)30-21-11-20(24-14-25-21)29-18-9-5-3-7-15(18)12-23/h3-11,13-14H,1-2H3/b17-13+",WFDXOXNFNRHQEC-GHRIWEEISA-N,CO/C=C(/C(=O)OC)c1ccccc1Oc1cc(Oc2ccccc2C#N)ncn1,-4.8276,0.0,1,G1,403.3940000000001,4.093180000000004,106.78100000000003,30.0,8.0,0.0,8.0,7.0,150.0,3.0,0.0,0.0,3.0,103.56,172.49321984725344,1.896982693275962,1121.5059119552402
B-2889,tricyclazole,"InChI=1S/C9H7N3S/c1-6-3-2-4-7-8(6)12-5-10-11-9(12)13-7/h2-5H,1H3",DQJCHOQLCLEDLL-UHFFFAOYSA-N,Cc1cccc2sc3nncn3c12,-2.0729,0.0,1,G1,189.243,2.25242,53.10700000000001,13.0,4.0,0.0,4.0,0.0,64.0,3.0,0.0,0.0,3.0,30.19,78.64428296155039,2.683285650583276,578.5955126788881