ID,Name,InChI,InChIKey,SMILES,Solubility,SD,Occurrences,Group,MolWt,MolLogP,MolMR,HeavyAtomCount,NumHAcceptors,NumHDonors,NumHeteroatoms,NumRotatableBonds,NumValenceElectrons,NumAromaticRings,NumSaturatedRings,NumAliphaticRings,RingCount,TPSA,LabuteASA,BalabanJ,BertzCT
C-682,albendazole,"InChI=1S/C12H15N3O2S/c1-3-6-18-8-4-5-9-10(7-8)14-11(13-9)15-12(16)17-2/h4-5,7H,3,6H2,1-2H3,(H2,13,14,15,16)",HXHWSAZORRCQMX-UHFFFAOYSA-N,CCCSc1ccc2[nH]c(NC(=O)OC)nc2c1,-4.22,0.0,1,G1,265.33799999999997,3.2433000000000005,73.13640000000002,18.0,4.0,2.0,6.0,4.0,96.0,2.0,0.0,0.0,2.0,67.01,109.31462616369996,2.1939902741755093,553.2461408183977
C-783,benomyl,"InChI=1S/C14H18N4O3/c1-3-4-9-15-13(19)18-11-8-6-5-7-10(11)16-12(18)17-14(20)21-2/h5-8H,3-4,9H2,1-2H3,(H,15,19)(H,16,17,20)",RIOXQFHNBCKOKP-UHFFFAOYSA-N,CCCCNC(=O)n1c(NC(=O)OC)nc2ccccc21,-4.86,0.0115499999999997,2,G3,290.32300000000004,2.5724,79.46540000000003,21.0,5.0,2.0,7.0,4.0,112.0,2.0,0.0,0.0,2.0,85.25000000000001,121.8427561373751,2.3502170049464204,650.7065804079459
C-1256,carbendazim; methyl n-(benzimidazol-2-yl)carbamate; 2-(methoxycarbonylamino)benzimidazole,"InChI=1S/C9H9N3O2/c1-14-9(13)12-8-10-6-4-2-3-5-7(6)11-8/h2-5H,1H3,(H2,10,11,12,13)",TWFZGCMQGLPBSX-UHFFFAOYSA-N,COC(=O)Nc1nc2ccccc2[nH]1,-4.52,0.0,1,G1,191.19000000000003,1.7411999999999996,52.12140000000001,14.0,3.0,2.0,5.0,1.0,72.0,2.0,0.0,0.0,2.0,67.00999999999999,80.09668979514488,2.3104906039484137,430.77993566168885
F-6,8-Phenyl-7H-purine,"InChI=1S/C11H8N4/c1-2-4-8(5-3-1)10-14-9-6-12-7-13-11(9)15-10/h1-7,11H",HCBHHMUMLKPGQL-UHFFFAOYSA-N,C1=NC=NC2N=C(c3ccccc3)N=C12,-3.07,0.0,1,G1,196.213,1.3266,61.186000000000014,15.0,4.0,0.0,4.0,1.0,72.0,1.0,0.0,2.0,3.0,49.44,86.82574132786203,2.009269630173918,496.5790235582741
F-769,"N-[(4-methoxyphenyl)methyl]-N',N'-dimethyl-N-pyrimidin-2-ylethane-1,2-diamine","InChI=1S/C16H22N4O/c1-19(2)11-12-20(16-17-9-4-10-18-16)13-14-5-7-15(21-3)8-6-14/h4-10H,11-13H2,1-3H3",GULNIHOSWFYMRN-UHFFFAOYSA-N,COc1ccc(CN(CCN(C)C)c2ncccn2)cc1,-2.99,0.0,1,G1,286.379,2.0534,84.63000000000005,21.0,5.0,0.0,5.0,7.0,112.0,2.0,0.0,0.0,2.0,41.49,125.75065854374724,2.1048843505456873,527.7330568376073
A-3712,"4-amino-N-tert-butyl-5-oxo-3-(propan-2-yl)-4,5-dihydro-1H-1,2,4-triazole-1-carboxamide","InChI=1S/C10H19N5O2/c1-6(2)7-13-15(9(17)14(7)11)8(16)12-10(3,4)5/h6H,11H2,1-5H3,(H,12,16)",ORFPWVRKFLOQHK-UHFFFAOYSA-N,CC(C)c1nn(C(=O)NC(C)(C)C)c(=O)n1N,-1.7188473974,0.0088618323233733,3,G5,241.295,0.2382000000000007,64.40910000000002,17.0,6.0,2.0,7.0,1.0,96.0,1.0,0.0,0.0,1.0,94.94,99.5707260601158,3.1237094952308486,477.86618958429005
E-942,Anisomycin,"InChI=1S/C14H19NO4/c1-9(16)19-14-12(15-8-13(14)17)7-10-3-5-11(18-2)6-4-10/h3-6,12-15,17H,7-8H2,1-2H3",YKJYKKNCCRKFSL-UHFFFAOYSA-N,COc1ccc(CC2NCC(O)C2OC(C)=O)cc1,-1.61,0.0,1,G1,265.30899999999997,0.5020999999999994,70.04950000000004,19.0,5.0,2.0,5.0,4.0,104.0,1.0,1.0,1.0,2.0,67.78999999999999,112.07781737600222,2.0154233929330507,431.57703411778425
C-507,vitavax;  carboxin,"InChI=1S/C12H13NO2S/c1-9-11(16-8-7-15-9)12(14)13-10-5-3-2-4-6-10/h2-6H,7-8H2,1H3,(H,13,14)",GYSSRZJIHXQEHQ-UHFFFAOYSA-N,CC1=C(C(=O)Nc2ccccc2)SCCO1,-3.14,0.0321499999999999,2,G3,235.308,2.620000000000001,66.18170000000003,16.0,3.0,1.0,4.0,2.0,84.0,1.0,0.0,1.0,2.0,38.33,98.87366115868709,2.086650443821241,414.28675391292165
C-2504,norethindrone  4-phenoxybenzoate,"InChI=1S/C33H34O4/c1-3-33(37-31(35)22-9-13-26(14-10-22)36-25-7-5-4-6-8-25)20-18-30-29-15-11-23-21-24(34)12-16-27(23)28(29)17-19-32(30,33)2/h1,4-10,13-14,21,27-30H,11-12,15-20H2,2H3",NOLFOVJQJONDCP-UHFFFAOYSA-N,C#CC1(OC(=O)c2ccc(Oc3ccccc3)cc2)CCC2C3CCC4=CC(=O)CCC4C3CCC21C,-6.84,0.0,1,G1,494.6310000000002,7.149500000000008,142.03049999999985,37.0,4.0,0.0,4.0,4.0,190.0,2.0,3.0,4.0,6.0,52.60000000000001,218.98871413254912,1.1878814083850415,1269.651414713402
A-3685,"disodium 7-({bis[(2-hydroxyethyl)amino]-1,3,5-triazin-2-yl}amino)-4-hydroxy-3-[(E)-2-{4-[(E)-2-(4-sulfonatophenyl)diazen-1-yl]phenyl}diazen-1-yl]naphthalene-2-sulfonate","InChI=1S/C29H28N10O9S2.2Na/c40-13-11-30-27-33-28(31-12-14-41)35-29(34-27)32-21-7-10-23-17(15-21)16-24(50(46,47)48)25(26(23)42)39-38-19-3-1-18(2-4-19)36-37-20-5-8-22(9-6-20)49(43,44)45;;/h1-10,15-16,38,40-41H,11-14H2,(H,43,44,45)(H,46,47,48)(H3,30,31,32,33,34,35);;/q;2*+1/p-2/b37-36?,39-25-;;",GCRNVICBLHQKTF-FOZHKXGMSA-L,O=C1/C(=N\Nc2ccc(N=Nc3ccc(S(=O)(=O)[O-])cc3)cc2)C(S(=O)(=O)[O-])=Cc2cc(Nc3nc(NCCO)nc(NCCO)n3)ccc21.[Na+].[Na+],-0.2836980196999999,0.0,1,G1,768.7020000000003,-3.6983999999999897,178.78829999999977,52.0,19.0,6.0,23.0,14.0,260.0,4.0,0.0,1.0,5.0,295.79999999999995,340.83147836494516,3.6449930791544406e-06,2197.0480393407374
C-2559,n4-[2-(benzylsulfonamido)pyrimidin-4-yl)sulfanilamide; 4-[2-(benzylsulfonylamino)pyrimidin-4-ylamino]benzenesulfonamide,"InChI=1S/C17H17N5O4S2/c18-28(25,26)15-8-6-14(7-9-15)20-16-10-11-19-17(21-16)22-27(23,24)12-13-4-2-1-3-5-13/h1-11H,12H2,(H2,18,25,26)(H2,19,20,21,22)",QFSKYCBYJWHTPZ-UHFFFAOYSA-N,NS(=O)(=O)c1ccc(Nc2ccnc(NS(=O)(=O)Cc3ccccc3)n2)cc1,-2.7,0.0,1,G1,419.48800000000017,1.8095,105.81839999999998,28.0,7.0,3.0,11.0,7.0,146.0,3.0,0.0,0.0,3.0,144.14,162.31099645697353,1.7155438612602096,1165.6843213102993
A-2764,"beta,beta-carotene","InChI=1S/C40H56/c1-31(19-13-21-33(3)25-27-37-35(5)23-15-29-39(37,7)8)17-11-12-18-32(2)20-14-22-34(4)26-28-38-36(6)24-16-30-40(38,9)10/h11-14,17-22,25-28H,15-16,23-24,29-30H2,1-10H3/b12-11+,19-13+,20-14+,27-25+,28-26+,31-17+,32-18+,33-21+,34-22+",OENHQHLEOONYIE-JLTXGRSLSA-N,CC1=C(/C=C/C(C)=C/C=C/C(C)=C/C=C/C=C(C)/C=C/C=C(C)/C=C/C2=C(C)CCCC2(C)C)C(C)(C)CCC1,-7.5537924381,0.0,1,G1,536.8880000000004,12.605799999999975,181.3919999999994,40.0,0.0,0.0,0.0,10.0,216.0,0.0,0.0,2.0,2.0,0.0,247.374697828212,1.885637979049954,1116.3830913843028
B-2535,"1,2-cyclodecanedione, dioxime","InChI=1S/C10H18N2O2/c13-11-9-7-5-3-1-2-4-6-8-10(9)12-14/h13-14H,1-8H2",SUIIPPMGDURFRE-UHFFFAOYSA-N,ON=C1CCCCCCCCC1=NO,-2.5813,0.0,1,G1,198.266,2.781200000000001,55.379000000000026,14.0,4.0,2.0,4.0,0.0,80.0,0.0,1.0,1.0,1.0,65.18,84.30508837893804,2.587854649455147,200.16188799454835
F-619,"1-(1,5-dimethyl-3-oxo-2-phenylpyrazol-4-yl)-3-phenylurea","InChI=1S/C18H18N4O2/c1-13-16(20-18(24)19-14-9-5-3-6-10-14)17(23)22(21(13)2)15-11-7-4-8-12-15/h3-12H,1-2H3,(H2,19,20,24)",MHDYKXPQKDDFFZ-UHFFFAOYSA-N,Cc1c(NC(=O)Nc2ccccc2)c(=O)n(-c2ccccc2)n1C,-2.3,0.0,1,G1,322.36800000000005,3.128420000000001,94.8304,24.0,4.0,2.0,6.0,3.0,122.0,3.0,0.0,0.0,3.0,68.06,138.8803913856747,1.8957785399330216,911.4418611155024
A-2930,cytidine 3'-(dihydrogen phosphate),"InChI=1S/C9H14N3O8P/c10-5-1-2-12(9(15)11-5)8-7(14)6(13)4(20-8)3-19-21(16,17)18/h1-2,4,6-8,13-14H,3H2,(H2,10,11,15)(H2,16,17,18)",IERHLVCPSMICTF-UHFFFAOYSA-N,Nc1ccn(C2OC(COP(=O)(O)O)C(O)C2O)c(=O)n1,-1.1987753523,0.0,1,G1,323.198,-2.446,66.82910000000003,21.0,9.0,5.0,12.0,4.0,118.0,1.0,1.0,1.0,2.0,177.36,117.35459892576851,2.1580023963313577,615.2554815393293
F-1026,4-amino-1-[5-(hydroxymethyl)oxolan-2-yl]pyrimidin-2-one,"InChI=1S/C9H13N3O3/c10-7-3-4-12(9(14)11-7)8-2-1-6(5-13)15-8/h3-4,6,8,13H,1-2,5H2,(H2,10,11,14)",WREGKURFCTUGRC-UHFFFAOYSA-N,Nc1ccn(C2CCC(CO)O2)c(=O)n1,-0.43,0.0,1,G1,211.221,-0.5046000000000006,53.139200000000024,15.0,6.0,2.0,6.0,2.0,82.0,1.0,1.0,1.0,2.0,90.37,86.30874176519849,2.204299752254942,403.83419717082575
F-1173,4-amino-1-[4-fluoro-5-(hydroxymethyl)oxolan-2-yl]pyrimidin-2-one,"InChI=1S/C9H12FN3O3/c10-5-3-8(16-6(5)4-14)13-2-1-7(11)12-9(13)15/h1-2,5-6,8,14H,3-4H2,(H2,11,12,15)",HNSUDSIHCJEYQG-UHFFFAOYSA-N,Nc1ccn(C2CC(F)C(CO)O2)c(=O)n1,-1.18,0.0,1,G1,229.211,-0.5566000000000006,53.41820000000002,16.0,6.0,2.0,7.0,2.0,88.0,1.0,1.0,1.0,2.0,90.37,90.47427716812474,2.232655521064887,436.25254139777735
B-3429,fenpyroximate,"InChI=1S/C24H27N3O4/c1-17-21(22(27(5)26-17)30-20-9-7-6-8-10-20)15-25-29-16-18-11-13-19(14-12-18)23(28)31-24(2,3)4/h6-15H,16H2,1-5H3/b25-15+",YYJNOYZRYGDPNH-MFKUBSTISA-N,Cc1nn(C)c(Oc2ccccc2)c1/C=N/OCc1ccc(C(=O)OC(C)(C)C)cc1,-7.4604,0.0,1,G1,421.4970000000002,5.026820000000005,118.45450000000002,31.0,7.0,0.0,7.0,7.0,162.0,3.0,0.0,0.0,3.0,74.94,181.78882279205783,1.6089716214904664,1048.9236180110568
A-2312,2-[(4-{[2-(4-cyclohexylphenoxy)ethyl](ethyl)amino}-2-methylphenyl)methylidene]propanedinitrile,"InChI=1S/C27H31N3O/c1-3-30(26-12-9-25(21(2)17-26)18-22(19-28)20-29)15-16-31-27-13-10-24(11-14-27)23-7-5-4-6-8-23/h9-14,17-18,23H,3-8,15-16H2,1-2H3",NQAJBKZEQYYFGK-UHFFFAOYSA-N,CCN(CCOc1ccc(C2CCCCC2)cc1)c1ccc(C=C(C#N)C#N)c(C)c1,-8.3860948559,0.3090453912694317,3,G5,413.5650000000001,6.378580000000007,126.03200000000008,31.0,4.0,0.0,4.0,8.0,160.0,2.0,1.0,1.0,3.0,60.05,185.9257331184444,1.5659081484278023,957.0216308894228
F-796,"O3-ethyl O5-methyl 4-(2,3-dichlorophenyl)-2,6-dimethyl-1,4-dihydropyridine-3,5-dicarboxylate","InChI=1S/C18H19Cl2NO4/c1-5-25-18(23)14-10(3)21-9(2)13(17(22)24-4)15(14)11-7-6-8-12(19)16(11)20/h6-8,15,21H,5H2,1-4H3",RZTAMFZIAATZDJ-UHFFFAOYSA-N,CCOC(=O)C1=C(C)NC(C)=C(C(=O)OC)C1c1cccc(Cl)c1Cl,-5.68,0.4399999999999999,2,G3,384.259,3.9643000000000024,96.3877,25.0,5.0,1.0,7.0,4.0,134.0,1.0,0.0,1.0,2.0,64.63,156.13220057083117,2.738931060348321,783.2807861577598
G-867,nifedipine,"InChI=1S/C17H18N2O6/c1-9-13(16(20)24-3)15(14(10(2)18-9)17(21)25-4)11-7-5-6-8-12(11)19(22)23/h5-8,15,18H,1-4H3",HYIMSNHJOBLJNT-UHFFFAOYSA-N,COC(=O)C1=C(C)NC(C)=C(C(=O)OC)C1c1ccccc1[N+](=O)[O-],-4.76,0.1143095213298815,3,G5,346.33900000000017,2.1756,88.40510000000002,25.0,7.0,1.0,8.0,4.0,132.0,1.0,0.0,1.0,2.0,107.77,143.8137017251711,2.803490087611988,771.1110283918142
B-2070,ajmaline,"InChI=1S/C20H26N2O2/c1-3-10-11-8-14-17-20(12-6-4-5-7-13(12)21(17)2)9-15(16(11)18(20)23)22(14)19(10)24/h4-7,10-11,14-19,23-24H,3,8-9H2,1-2H3/t10-,11-,14-,15-,16?,17-,18?,19+,20+/m0/s1",CJDRUOGAGYHKKD-QFTSDIPNSA-N,CC[C@H]1[C@@H]2C[C@H]3[C@@H]4N(C)c5ccccc5[C@]45C[C@@H](C2C5O)N3[C@@H]1O,-2.8266,0.0,1,G1,326.44000000000005,1.5545,91.73460000000006,24.0,4.0,2.0,4.0,1.0,128.0,1.0,5.0,6.0,7.0,46.940000000000005,142.6195717982021,1.595723318205141,723.345329157242
F-912,4-[3-(morpholin-4-ylmethyl)benzoyl]thiophene-2-sulfonamide,"InChI=1S/C16H18N2O4S2/c17-24(20,21)15-9-14(11-23-15)16(19)13-3-1-2-12(8-13)10-18-4-6-22-7-5-18/h1-3,8-9,11H,4-7,10H2,(H2,17,20,21)",OZVILYXCMAQHFM-UHFFFAOYSA-N,NS(=O)(=O)c1cc(C(=O)c2cccc(CN3CCOCC3)c2)cs1,-1.92,0.0,1,G1,366.46400000000006,1.4587000000000003,91.66270000000004,24.0,6.0,1.0,8.0,5.0,128.0,2.0,1.0,1.0,3.0,89.7,144.44824971800475,1.773588339295361,839.267234018043
B-709,pyrethrin i,"InChI=1S/C21H28O3/c1-7-8-9-10-15-14(4)18(12-17(15)22)24-20(23)19-16(11-13(2)3)21(19,5)6/h7-9,11,16,18-19H,1,10,12H2,2-6H3/b9-8-/t16-,18+,19+/m1/s1",ROVGZAWFACYCSP-VUMXUWRFSA-N,C=C/C=C\CC1=C(C)[C@@H](OC(=O)[C@@H]2[C@@H](C=C(C)C)C2(C)C)CC1=O,-6.2155,0.0,1,G1,328.45200000000006,4.558200000000005,96.35000000000004,24.0,3.0,0.0,3.0,6.0,130.0,0.0,1.0,2.0,2.0,43.370000000000005,144.70460830956063,2.05187472566039,641.995008251571
B-710,pyrethrin ii,"InChI=1S/C22H28O5/c1-7-8-9-10-15-14(3)18(12-17(15)23)27-21(25)19-16(22(19,4)5)11-13(2)20(24)26-6/h7-9,11,16,18-19H,1,10,12H2,2-6H3/b9-8-,13-11+/t16-,18+,19+/m1/s1",VJFUPGQZSXIULQ-XIGJTORUSA-N,C=C/C=C\CC1=C(C)[C@@H](OC(=O)[C@@H]2[C@@H](/C=C(\C)C(=O)OC)C2(C)C)CC1=O,-4.6168,0.0,1,G1,372.4610000000001,3.711300000000003,102.69200000000006,27.0,5.0,0.0,5.0,7.0,146.0,0.0,1.0,2.0,2.0,69.67000000000002,160.34461775350792,2.070106032515514,750.6648264739563
B-264,"peroxide, bis(1-methyl-1-phenylethyl)","InChI=1S/C18H22O2/c1-17(2,15-11-7-5-8-12-15)19-20-18(3,4)16-13-9-6-10-14-16/h5-14H,1-4H3",XMNIXWIUMCBBBL-UHFFFAOYSA-N,CC(C)(OOC(C)(C)c1ccccc1)c1ccccc1,-5.7692,0.014646629,2,G3,270.372,4.805200000000005,81.10600000000007,20.0,2.0,0.0,2.0,5.0,106.0,2.0,0.0,0.0,2.0,18.46,120.83453578669274,2.080213974786274,478.35938487514255
A-5581,"propan-2-yl 3-[(Z)-2-{3-[(2,5-dichloro-4-{3-hydroxy-4-[(Z)-2-{2-methyl-5-[(propan-2-yloxy)carbonyl]phenyl}diazen-1-yl]naphthalene-2-amido}phenyl)carbamoyl]-2-hydroxynaphthalen-1-yl}diazen-1-yl]-4-methylbenzoate","InChI=1S/C50H42Cl2N6O8/c1-25(2)65-49(63)31-17-15-27(5)39(21-31)55-57-43-33-13-9-7-11-29(33)19-35(45(43)59)47(61)53-41-23-38(52)42(24-37(41)51)54-48(62)36-20-30-12-8-10-14-34(30)44(46(36)60)58-56-40-22-32(18-16-28(40)6)50(64)66-26(3)4/h7-26,59-60H,1-6H3,(H,53,61)(H,54,62)",KTIRDZPYBSANLK-UHFFFAOYSA-N,Cc1ccc(C(=O)OC(C)C)cc1N=Nc1c(O)c(C(=O)Nc2cc(Cl)c(NC(=O)c3cc4ccccc4c(N=Nc4cc(C(=O)OC(C)C)ccc4C)c3O)cc2Cl)cc2ccccc12,-7.0074879806,0.0,1,G1,925.8259999999998,13.793639999999977,255.40699999999953,66.0,12.0,4.0,16.0,12.0,334.0,7.0,0.0,0.0,7.0,200.7,388.46387325352094,1.1460964857510525,2957.929326300835
A-3320,"1-ethenyl-3-methyl-2,3-dihydro-1H-imidazol-1-ium chloride","InChI=1S/C6H10N2.ClH/c1-3-8-5-4-7(2)6-8;/h3-5H,1,6H2,2H3;1H",QARDSQYLYGISQN-UHFFFAOYSA-N,C=C[NH+]1C=CN(C)C1.[Cl-],0.6585802853,0.0,1,G1,146.621,-3.607099999999998,32.92969999999999,9.0,1.0,1.0,3.0,1.0,52.0,0.0,0.0,1.0,1.0,7.680000000000001,61.851684974871,6.399999148000115e-07,122.22626787690945
A-2430,trans-1-(1-oxohexadecyl)-4-[(1-oxohexadecyl)oxy]-L-proline,"InChI=1S/C37H69NO5/c1-3-5-7-9-11-13-15-17-19-21-23-25-27-29-35(39)38-32-33(31-34(38)37(41)42)43-36(40)30-28-26-24-22-20-18-16-14-12-10-8-6-4-2/h33-34H,3-32H2,1-2H3,(H,41,42)/t33-,34+/m1/s1",QZLXCFQVOCEKSX-NOCHOARKSA-N,CCCCCCCCCCCCCCCC(=O)O[C@@H]1C[C@@H](C(=O)O)N(C(=O)CCCCCCCCCCCCCCC)C1,-5.7838757207,0.0,1,G1,607.9610000000004,10.546299999999995,178.25779999999952,43.0,4.0,1.0,6.0,30.0,252.0,0.0,1.0,1.0,1.0,83.91,265.0235149446159,2.075899483592455,696.4957648842803
A-2971,(2S)-pyrrolidine-2-carboxylic acid,"InChI=1S/C5H9NO2/c7-5(8)4-2-1-3-6-4/h4,6H,1-3H2,(H,7,8)",ONIBWKKTOPOVIA-UHFFFAOYSA-N,O=C(O)C1CCCN1,1.1291356492,0.466957588096195,3,G5,115.13200000000002,-0.177,28.660499999999992,8.0,2.0,2.0,3.0,1.0,46.0,0.0,1.0,1.0,1.0,49.33,47.69880636773457,2.34993673877678,96.6017921972316
A-3768,"(2S,4R)-1-acetyl-4-hydroxypyrrolidine-2-carboxylic acid","InChI=1S/C7H11NO4/c1-4(9)8-3-5(10)2-6(8)7(11)12/h5-6,10H,2-3H2,1H3,(H,11,12)/p-1/t5-,6-/m0/s1",BAPRUDZDYCKSOQ-WDSKDSINSA-M,CC(=O)N1C[C@@H](O)C[C@H]1C(=O)[O-],0.3449927217,0.0,1,G1,172.15999999999997,-2.281999999999999,36.8058,12.0,4.0,1.0,5.0,1.0,68.0,0.0,1.0,1.0,1.0,80.67000000000002,69.59441793536288,2.7198223880133643,193.45191553287324
A-3791,(2S)-4-hydroxypyrrolidine-2-carboxylic acid,"InChI=1S/C5H9NO3/c7-3-1-4(5(8)9)6-2-3/h3-4,6-7H,1-2H2,(H,8,9)",PMMYEEVYMWASQN-UHFFFAOYSA-N,O=C(O)C1CC(O)CN1,0.4399221153,0.0,1,G1,131.13099999999997,-1.2061999999999995,30.050299999999993,9.0,3.0,3.0,4.0,1.0,52.0,0.0,1.0,1.0,1.0,69.56,52.493040119930576,2.3885666997264847,125.37151490463609
B-1551,n-nitrosopyrrolidine,InChI=1S/C4H8N2O/c7-5-6-3-1-2-4-6/h1-4H2,WNYADZVDBIBLJJ-UHFFFAOYSA-N,O=NN1CCCC1,0.9995,0.0,1,G1,100.121,0.7636000000000001,26.60199999999999,7.0,2.0,0.0,3.0,1.0,40.0,0.0,1.0,1.0,1.0,32.67,42.25294789215896,2.261812524676334,68.09004635215048
E-569,pyrrolidine,"InChI=1S/C4H9N/c1-2-4-5-3-1/h5H,1-4H2",RWRDLPDLKQPQOW-UHFFFAOYSA-N,C1CCNC1,1.15,0.0,1,G1,71.123,0.3697999999999999,22.103699999999993,5.0,1.0,1.0,1.0,0.0,30.0,0.0,1.0,1.0,1.0,12.03,32.37810840109819,2.083333333333333,15.21928094887362
C-1018,acronine;  acromycine;  acronycine,"InChI=1S/C20H19NO3/c1-20(2)10-9-13-15(24-20)11-16(23-4)17-18(13)21(3)14-8-6-5-7-12(14)19(17)22/h5-11H,1-4H3",SMPZPKRDRQOOHT-UHFFFAOYSA-N,COc1cc2c(c3c1c(=O)c1ccccc1n3C)C=CC(C)(C)O2,-5.21,0.0,1,G1,321.3760000000001,3.8845000000000023,96.98800000000004,24.0,4.0,0.0,4.0,1.0,122.0,3.0,0.0,1.0,4.0,40.46,139.4721248246295,2.262222363849489,1073.8572075993525
C-1027,thioridazine,"InChI=1S/C21H26N2S2/c1-22-13-6-5-7-16(22)12-14-23-18-8-3-4-9-20(18)25-21-11-10-17(24-2)15-19(21)23/h3-4,8-11,15-16H,5-7,12-14H2,1-2H3",KLBQZWRITKRQQV-UHFFFAOYSA-N,CSc1ccc2c(c1)N(CCC1CCCCN1C)c1ccccc1S2,-5.82,0.0,1,G1,370.58700000000016,5.885600000000006,110.68000000000006,25.0,4.0,0.0,4.0,4.0,132.0,2.0,1.0,2.0,4.0,6.48,159.52720143920928,1.6303380857414709,746.4259502830741
C-2104,"9-[2-(indol-3-yl)ethyl]-1-oxa-3-oxo-4,9-diazaspiro[5,5]undecane","InChI=1S/C18H23N3O2/c22-17-12-23-18(13-20-17)6-9-21(10-7-18)8-5-14-11-19-16-4-2-1-3-15(14)16/h1-4,11,19H,5-10,12-13H2,(H,20,22)",SPALXTYNFFFDEM-UHFFFAOYSA-N,O=C1COC2(CCN(CCc3c[nH]c4ccccc34)CC2)CN1,-2.99,0.0,1,G1,313.4010000000001,1.6913999999999996,89.36940000000006,23.0,3.0,2.0,5.0,3.0,122.0,2.0,2.0,2.0,4.0,57.36,135.54475009251613,1.3221433592180512,689.1095394718031
F-56,"N-benzyl-5-oxahexacyclo[5.4.1.0^{2,6}.0^{3,10}.0^{4,8}.0^{9,12}]dodecan-4-amine","InChI=1S/C18H19NO/c1-2-4-8(5-3-1)7-19-18-15-10-6-9-11-12(10)16(18)14(11)17(20-18)13(9)15/h1-5,9-17,19H,6-7H2",AVESFRBKERIICX-UHFFFAOYSA-N,c1ccc(CNC23OC4C5C6CC(C7C6C4C72)C53)cc1,-3.4,0.0,1,G1,265.356,2.2590000000000003,73.42270000000003,20.0,2.0,1.0,2.0,3.0,102.0,1.0,7.0,7.0,8.0,21.26,118.4391289841958,1.2925560098195636,619.5652100646425
C-2594,boc-phe-his-achpa-leu-nh-ch2-ph-3-ch2-nh2 (analog 12),"InChI=1S/C45H66N8O7/c1-29(2)19-36(41(56)48-26-33-18-12-17-32(20-33)25-46)50-40(55)24-39(54)35(21-30-13-8-6-9-14-30)51-43(58)38(23-34-27-47-28-49-34)52-42(57)37(22-31-15-10-7-11-16-31)53-44(59)60-45(3,4)5/h7,10-12,15-18,20,27-30,35-39,54H,6,8-9,13-14,19,21-26,46H2,1-5H3,(H,47,49)(H,48,56)(H,50,55)(H,51,58)(H,52,57)(H,53,59)",QIGZLJVYYYXMIH-UHFFFAOYSA-N,CC(C)CC(NC(=O)CC(O)C(CC1CCCCC1)NC(=O)C(Cc1c[nH]cn1)NC(=O)C(Cc1ccccc1)NC(=O)OC(C)(C)C)C(=O)NCc1cccc(CN)c1,-4.7,0.0,1,G1,831.0719999999998,4.085200000000007,228.83839999999933,60.0,9.0,8.0,15.0,21.0,328.0,3.0,1.0,1.0,4.0,229.66,353.7214233089292,1.5053446894841858,1808.9767387470465
B-2602,fosthietan,"InChI=1S/C6H12NO3PS2/c1-3-9-11(8,10-4-2)7-6-12-5-13-6/h3-5H2,1-2H3",RHJOIOVESMTJEK-UHFFFAOYSA-N,CCOP(=O)(N=C1SCS1)OCC,-0.6835,0.0,1,G1,241.274,2.961000000000001,58.34250000000003,13.0,5.0,0.0,7.0,5.0,76.0,0.0,1.0,1.0,1.0,47.89,86.4459132339936,2.5943379087539564,230.03386331808
B-2732,"1,2:3,4-diepoxybutane (2r,3r)","InChI=1S/C4H6O2/c1-3(5-1)4-2-6-4/h3-4H,1-2H2/t3-,4-/m1/s1",ZFIVKAOQEXOYFY-QWWZWVQMSA-N,C1O[C@H]1[C@H]1CO1,1.065,0.0,1,G1,86.09,-0.2159999999999999,19.479999999999997,6.0,2.0,0.0,2.0,1.0,34.0,0.0,2.0,2.0,2.0,25.06,36.04950552297468,1.9155467020454344,53.94833690207419
A-266,17-hydroxy-1-methylandrost-4-en-3-one,"InChI=1S/C20H30O2/c1-12-10-14(21)11-13-4-5-15-16-6-7-18(22)19(16,2)9-8-17(15)20(12,13)3/h11-12,15-18,22H,4-10H2,1-3H3/t12-,15-,16-,17-,18-,19-,20-/m0/s1",KROXBRXHRBCDNO-IFMMWYRXSA-N,C[C@H]1CC(=O)C=C2CC[C@H]3[C@@H]4CC[C@H](O)[C@@]4(C)CC[C@@H]3[C@]21C,-3.5264225666000004,0.0,1,G1,302.458,4.125200000000003,87.26380000000006,22.0,2.0,1.0,2.0,0.0,122.0,0.0,3.0,4.0,4.0,37.3,133.9159794073037,1.720020177686117,535.8253337815046
A-1186,"11,17,21-trihydroxypregn-4-ene-3,20-dione","InChI=1S/C21H30O5/c1-19-7-5-13(23)9-12(19)3-4-14-15-6-8-21(26,17(25)11-22)20(15,2)10-16(24)18(14)19/h9,14-16,18,22,24,26H,3-8,10-11H2,1-2H3/t14-,15-,16-,18+,19-,20-,21-/m0/s1",JYGXADMDTFJGBT-VWUMJDOOSA-N,C[C@]12CCC(=O)C=C1CC[C@@H]1[C@@H]2[C@@H](O)C[C@@]2(C)[C@H]1CC[C@]2(O)C(=O)CO,-3.1121092438,0.0290046218999999,2,G3,362.4660000000001,1.7816,95.14240000000004,26.0,5.0,3.0,5.0,2.0,144.0,0.0,3.0,4.0,4.0,94.83,154.03091112613612,1.7350832012021693,683.8889217536757
A-4943,"17-hydroxy-17-(3-hydroxyprop-1-yn-1-yl)-10,13-dimethyl-1,2,6,7,8,9,10,11,12,13,14,15,16,17-tetradecahydro-3H-cyclopenta[a]phenanthren-3-one (non-preferred name)","InChI=1S/C22H30O3/c1-20-10-6-16(24)14-15(20)4-5-17-18(20)7-11-21(2)19(17)8-12-22(21,25)9-3-13-23/h14,17-19,23,25H,4-8,10-13H2,1-2H3/t17-,18+,19+,20+,21+,22?/m1/s1",GBFFSHZRGVVSDW-ASWBSXDLSA-N,C[C@]12CCC(=O)C=C1CC[C@@H]1[C@@H]2CC[C@@]2(C)[C@H]1CCC2(O)C#CCO,-3.526033775,0.0,1,G1,342.4790000000001,3.245100000000002,96.52160000000003,25.0,3.0,2.0,3.0,0.0,136.0,0.0,3.0,4.0,4.0,57.53,150.43932278015222,1.6689562339450883,683.1212389503909