ID,Name,InChI,InChIKey,SMILES,Solubility,SD,Occurrences,Group,MolWt,MolLogP,MolMR,HeavyAtomCount,NumHAcceptors,NumHDonors,NumHeteroatoms,NumRotatableBonds,NumValenceElectrons,NumAromaticRings,NumSaturatedRings,NumAliphaticRings,RingCount,TPSA,LabuteASA,BalabanJ,BertzCT
B-1157,o-thymotic acid,"InChI=1S/C11H14O3/c1-6(2)8-5-4-7(3)9(10(8)12)11(13)14/h4-6,12H,1-3H3,(H,13,14)",FNWNGQGTFICQJU-UHFFFAOYSA-N,Cc1ccc(C(C)C)c(O)c1C(=O)O,-3.2883,0.0,1,G1,194.22999999999996,2.5222200000000012,53.89210000000003,14.0,2.0,2.0,3.0,2.0,76.0,1.0,0.0,0.0,1.0,57.53,83.00610329591579,3.4105045818157524,367.0405477923578
B-1162,"2,4,6-trichloro-3-methylphenol","InChI=1S/C7H5Cl3O/c1-3-4(8)2-5(9)7(11)6(3)10/h2,11H,1H3",QTAATZDGGZYBDC-UHFFFAOYSA-N,Cc1c(Cl)cc(Cl)c(O)c1Cl,-3.2761,0.0,1,G1,211.475,3.6608200000000006,47.87380000000001,11.0,1.0,1.0,4.0,0.0,60.0,1.0,0.0,0.0,1.0,20.23,79.50037766673461,3.4555464838177836,269.97742726989566
B-1166,5-nitro-2-propoxyaniline,"InChI=1S/C9H12N2O3/c1-2-5-14-9-4-3-7(11(12)13)6-8(9)10/h3-4,6H,2,5,10H2,1H3",RXQCEGOUSFBKPI-UHFFFAOYSA-N,CCCOc1ccc([N+](=O)[O-])cc1N,-3.1592,0.0,1,G1,196.20599999999996,1.9658,53.294800000000016,14.0,4.0,1.0,5.0,4.0,76.0,1.0,0.0,0.0,1.0,78.38999999999999,81.63264111170618,2.8414580221504524,338.828993542009
B-1172,methyldopa,"InChI=1S/C10H13NO4/c1-10(11,9(14)15)5-6-2-3-7(12)8(13)4-6/h2-4,12-13H,5,11H2,1H3,(H,14,15)/t10-/m0/s1",CJCSPKMFHVPWAR-JTQLQIEISA-N,C[C@](N)(Cc1ccc(O)c(O)c1)C(=O)O,-1.3247,0.0,1,G1,211.217,0.4423000000000001,53.703800000000015,15.0,4.0,4.0,5.0,3.0,82.0,1.0,0.0,0.0,1.0,103.78,86.77528563072794,2.905062365401662,387.0088201517134
B-1173,maleanilic acid,"InChI=1S/C10H9NO3/c12-9(6-7-10(13)14)11-8-4-2-1-3-5-8/h1-7H,(H,11,12)(H,13,14)/b7-6-",WHZLCOICKHIPRL-SREVYHEPSA-N,O=C(O)/C=C\C(=O)Nc1ccccc1,-2.2815,0.0,1,G1,191.18600000000004,1.2658999999999998,51.84750000000002,14.0,2.0,2.0,4.0,3.0,72.0,1.0,0.0,0.0,1.0,66.39999999999999,80.86870868079075,2.540353584979256,356.8896771549849
B-1175,d-tyrosine,"InChI=1S/C9H11NO3/c10-8(9(12)13)5-6-1-3-7(11)4-2-6/h1-4,8,11H,5,10H2,(H,12,13)/t8-/m1/s1",OUYCCCASQSFEME-MRVPVSSYSA-N,N[C@H](Cc1ccc(O)cc1)C(=O)O,-2.6049,0.0,1,G1,181.19099999999997,0.3466,47.42200000000002,13.0,3.0,3.0,4.0,3.0,70.0,1.0,0.0,0.0,1.0,83.55000000000001,75.6161097641353,2.641763904889644,294.23305328030176
B-1176,dl-tyrosine,"InChI=1S/C9H11NO3/c10-8(9(12)13)5-6-1-3-7(11)4-2-6/h1-4,8,11H,5,10H2,(H,12,13)",OUYCCCASQSFEME-UHFFFAOYSA-N,NC(Cc1ccc(O)cc1)C(=O)O,-2.6561,0.2072273796461269,4,G5,181.19099999999997,0.3466,47.42200000000002,13.0,3.0,3.0,4.0,3.0,70.0,1.0,0.0,0.0,1.0,83.55000000000001,75.6161097641353,2.641763904889644,294.23305328030176
B-1219,"benzoic acid, 2-hydroxy-, methoxymethyl ester","InChI=1S/C9H10O4/c1-12-6-13-9(11)7-4-2-3-5-8(7)10/h2-5,10H,6H2,1H3",NTIBMIIYTKPBNR-UHFFFAOYSA-N,COCOC(=O)c1ccccc1O,-2.3,0.0,1,G1,182.175,1.1529,45.39830000000003,13.0,4.0,1.0,4.0,3.0,70.0,1.0,0.0,0.0,1.0,55.760000000000005,75.70907577394033,2.710721902361315,295.4211052507959
B-1225,"2,6-diethylaniline","InChI=1S/C10H15N/c1-3-8-6-5-7-9(4-2)10(8)11/h5-7H,3-4,11H2,1-2H3",FOYHNROGBXVLLX-UHFFFAOYSA-N,CCc1cccc(CC)c1N,-2.3478,0.0,1,G1,149.23699999999997,2.3936,49.61040000000003,11.0,1.0,1.0,1.0,2.0,60.0,1.0,0.0,0.0,1.0,26.02,68.2310622740961,3.0951982523070996,218.37813497601377
B-1238,"phenol, 3-(1,1-dimethylethyl)-","InChI=1S/C10H14O/c1-10(2,3)8-5-4-6-9(11)7-8/h4-7,11H,1-3H3",CYEKUDPFXBLGHH-UHFFFAOYSA-N,CC(C)(C)c1cccc(O)c1,-1.8614,0.0,1,G1,150.22099999999998,2.689700000000001,46.80680000000004,11.0,1.0,1.0,1.0,0.0,60.0,1.0,0.0,0.0,1.0,20.23,67.6854053292794,3.0599016922179834,245.29484428381983
B-1239,3-bromo-1-nitrobenzene,InChI=1S/C6H4BrNO2/c7-5-2-1-3-6(4-5)8(9)10/h1-4H,FWIROFMBWVMWLB-UHFFFAOYSA-N,O=[N+]([O-])c1cccc(Br)c1,-1.3054,0.0,1,G1,202.007,2.3573000000000004,40.79640000000001,10.0,2.0,0.0,4.0,1.0,52.0,1.0,0.0,0.0,1.0,43.14,65.95192644763813,3.069899265759275,261.67965837655686
B-1243,"3,5-dinitrophenol","InChI=1S/C6H4N2O5/c9-6-2-4(7(10)11)1-5(3-6)8(12)13/h1-3,9H",UEMBNLWZFIWQFL-UHFFFAOYSA-N,O=[N+]([O-])c1cc(O)cc([N+](=O)[O-])c1,-1.663,0.0,1,G1,184.10699999999997,1.2086000000000003,41.41560000000001,13.0,5.0,1.0,7.0,2.0,68.0,1.0,0.0,0.0,1.0,106.51,71.53158831669259,3.263407613099897,343.037402549959
B-1244,"1,4-benzenedicarboxylic acid, 2-bromo-","InChI=1S/C8H5BrO4/c9-6-3-4(7(10)11)1-2-5(6)8(12)13/h1-3H,(H,10,11)(H,12,13)",QPBGNSFASPVGTP-UHFFFAOYSA-N,O=C(O)c1ccc(C(=O)O)c(Br)c1,-2.1339,0.0,1,G1,245.02799999999996,1.8455,48.0606,13.0,2.0,2.0,5.0,2.0,68.0,1.0,0.0,0.0,1.0,74.6,81.94034665841109,3.2021054375890703,372.4068180287228
B-1248,m-methylbenzyl alcohol,"InChI=1S/C8H10O/c1-7-3-2-4-8(5-7)6-9/h2-5,9H,6H2,1H3",JJCKHVUTVOPLBV-UHFFFAOYSA-N,Cc1cccc(CO)c1,-0.3879999999999999,0.0,1,G1,122.167,1.48732,37.1018,9.0,1.0,1.0,1.0,1.0,48.0,1.0,0.0,0.0,1.0,20.23,54.95552110048619,2.9368661023365914,193.51405299160072
B-1249,"3,5-dichlorophenoxyacetic acid","InChI=1S/C8H6Cl2O3/c9-5-1-6(10)3-7(2-5)13-4-8(11)12/h1-3H,4H2,(H,11,12)",LXWGIMHMQOCPCR-UHFFFAOYSA-N,O=C(O)COc1cc(Cl)cc(Cl)c1,-2.3617,0.0,1,G1,221.039,2.4568000000000003,49.59280000000002,13.0,2.0,1.0,5.0,3.0,70.0,1.0,0.0,0.0,1.0,46.53,84.83712088380018,2.7132421927666166,304.91521978178946
B-1250,m-chlorophenoxyacetic acid,"InChI=1S/C8H7ClO3/c9-6-2-1-3-7(4-6)12-5-8(10)11/h1-4H,5H2,(H,10,11)",XSBUXVWJQVTYLC-UHFFFAOYSA-N,O=C(O)COc1cccc(Cl)c1,-2.1954,0.1476999999999999,2,G3,186.594,1.8034,44.58280000000002,12.0,2.0,1.0,4.0,3.0,64.0,1.0,0.0,0.0,1.0,46.53,74.5338546569185,2.5749361542074807,285.3863912728923
B-1252,"1,4-benzenedimethanol","InChI=1S/C8H10O2/c9-5-7-1-2-8(6-10)4-3-7/h1-4,9-10H,5-6H2",BWVAOONFBYYRHY-UHFFFAOYSA-N,OCc1ccc(CO)cc1,-0.3861,0.0,1,G1,138.166,0.6712,38.287600000000005,10.0,2.0,2.0,2.0,2.0,54.0,1.0,0.0,0.0,1.0,40.46,59.749754852682194,2.797251262969787,167.91749419417292
B-1309,"benzoic acid, 2,6-dibromo-3,4,5-trihydroxy-","InChI=1S/C7H4Br2O5/c8-2-1(7(13)14)3(9)5(11)6(12)4(2)10/h10-12H,(H,13,14)",RZMMKKHHNDGXPD-UHFFFAOYSA-N,O=C(O)c1c(Br)c(O)c(O)c(O)c1Br,-0.4188,0.0,1,G1,327.912,2.0266,53.7957,14.0,4.0,4.0,7.0,1.0,76.0,1.0,0.0,0.0,1.0,97.99,94.8698975540041,3.682463305848331,386.0265607659981
B-1310,"3-methyl-2,4,6-trinitrophenol","InChI=1S/C7H5N3O7/c1-3-4(8(12)13)2-5(9(14)15)7(11)6(3)10(16)17/h2,11H,1H3",YYGJRRYSYLLCQH-UHFFFAOYSA-N,Cc1c([N+](=O)[O-])cc([N+](=O)[O-])c(O)c1[N+](=O)[O-],-2.0434,0.0,1,G1,243.13099999999997,1.4252200000000008,52.806999999999995,17.0,7.0,1.0,10.0,3.0,90.0,1.0,0.0,0.0,1.0,149.64999999999998,92.54950615358896,3.7562550919635713,500.5091268239617
B-1312,3-nitrophthalic acid,"InChI=1S/C8H5NO6/c10-7(11)4-2-1-3-5(9(14)15)6(4)8(12)13/h1-3H,(H,10,11)(H,12,13)",KFIRODWJCYBBHY-UHFFFAOYSA-N,O=C(O)c1cccc([N+](=O)[O-])c1C(=O)O,-1.0214,0.0057,2,G3,211.12899999999996,0.9912,47.01499999999999,15.0,4.0,2.0,7.0,3.0,78.0,1.0,0.0,0.0,1.0,117.74,82.72577477526953,3.55594512931231,420.1951582999609
B-1320,"1,2,3-tribromobenzene",InChI=1S/C6H3Br3/c7-4-2-1-3-5(8)6(4)9/h1-3H,GMVJKSNPLYBFSO-UHFFFAOYSA-N,Brc1cccc(Br)c1Br,-5.0402,0.0149000000000003,2,G3,314.80199999999996,3.9741,49.542,9.0,0.0,0.0,3.0,0.0,48.0,1.0,0.0,0.0,1.0,0.0,79.03404593642105,3.2478347337367026,199.2929995478469
B-1326,"2,4-dichloro-6-nitrophenol","InChI=1S/C6H3Cl2NO3/c7-3-1-4(8)6(10)5(2-3)9(11)12/h1-2,10H",LYPMXMBQPXPNIQ-UHFFFAOYSA-N,O=[N+]([O-])c1cc(Cl)cc(Cl)c1O,-4.0876,0.0,1,G1,207.99999999999997,2.6071999999999997,44.7812,12.0,3.0,1.0,6.0,1.0,64.0,1.0,0.0,0.0,1.0,63.37,77.48514504795612,3.3738590108748694,339.81023714834686
B-1327,"benzoic acid, 3-formyl-2-hydroxy-","InChI=1S/C8H6O4/c9-4-5-2-1-3-6(7(5)10)8(11)12/h1-4,10H,(H,11,12)",YOEUNKPREOJHBW-UHFFFAOYSA-N,O=Cc1cccc(C(=O)O)c1O,-2.4423,0.0,1,G1,166.13199999999998,0.9028999999999998,40.45360000000001,12.0,3.0,2.0,4.0,2.0,62.0,1.0,0.0,0.0,1.0,74.6,68.07279905276974,3.3188809690716057,329.8297871570007
B-1328,"2,4-dinitrobenzoic acid","InChI=1S/C7H4N2O6/c10-7(11)5-2-1-4(8(12)13)3-6(5)9(14)15/h1-3H,(H,10,11)",ZIIGSRYPZWDGBT-UHFFFAOYSA-N,O=C(O)c1ccc([N+](=O)[O-])cc1[N+](=O)[O-],-1.0665,0.0,1,G1,212.11699999999996,1.2011999999999998,46.7101,15.0,5.0,1.0,8.0,3.0,78.0,1.0,0.0,0.0,1.0,123.58,82.05805253113294,3.3963489782409866,454.7936738455577
B-1333,"1,2-benzenedimethanol","InChI=1S/C8H10O2/c9-5-7-3-1-2-4-8(7)6-10/h1-4,9-10H,5-6H2",XMUZQOKACOLCSS-UHFFFAOYSA-N,OCc1ccccc1CO,0.0569,0.0,1,G1,138.166,0.6712,38.287600000000005,10.0,2.0,2.0,2.0,2.0,54.0,1.0,0.0,0.0,1.0,40.46,59.749754852682194,2.964000093923802,185.16749419417297
B-1334,"benzoic acid, 2-(hydroxymethyl)-","InChI=1S/C8H8O3/c9-5-6-3-1-2-4-7(6)8(10)11/h1-4,9H,5H2,(H,10,11)",MGMNPSAERQZUIM-UHFFFAOYSA-N,O=C(O)c1ccccc1CO,-1.5508,0.0,1,G1,152.14899999999997,0.8771,39.32410000000001,11.0,2.0,2.0,3.0,2.0,58.0,1.0,0.0,0.0,1.0,57.53,63.91127695272596,3.121219318886157,267.7946100817276
B-1335,2-ethylnitrobenzene,"InChI=1S/C8H9NO2/c1-2-7-5-3-4-6-8(7)9(10)11/h3-6H,2H2,1H3",PXWYZLWEKCMTEZ-UHFFFAOYSA-N,CCc1ccccc1[N+](=O)[O-],-2.7993,0.0,1,G1,151.16499999999996,2.1572000000000005,42.474400000000024,11.0,2.0,0.0,3.0,2.0,58.0,1.0,0.0,0.0,1.0,43.14,64.81426307078998,3.121219318886157,270.54949758389114
B-1336,2-nitrobenzyl alcohol,"InChI=1S/C7H7NO3/c9-5-6-3-1-2-4-7(6)8(10)11/h1-4,9H,5H2",BWRBVBFLFQKBPT-UHFFFAOYSA-N,O=[N+]([O-])c1ccccc1CO,-1.4861,0.0,1,G1,153.13699999999997,1.0871,39.01920000000002,11.0,3.0,1.0,4.0,2.0,58.0,1.0,0.0,0.0,1.0,63.37,63.243554708589386,3.121219318886157,272.1431256273244
B-1339,2-chloroiodobenzene,InChI=1S/C6H4ClI/c7-5-3-1-2-4-6(5)8/h1-4H,MPEOPBCQHNWNFB-UHFFFAOYSA-N,Clc1ccccc1I,-3.54,0.0,1,G1,238.455,2.9446000000000003,44.16900000000001,8.0,0.0,0.0,2.0,0.0,42.0,1.0,0.0,0.0,1.0,0.0,66.99650746742228,3.134861511345448,164.63833891467198
B-1342,"1,2,4-tribromobenzene",InChI=1S/C6H3Br3/c7-4-1-2-5(8)6(9)3-4/h1-3H,FWAJPSIPOULHHH-UHFFFAOYSA-N,Brc1ccc(Br)c(Br)c1,-4.808,0.1549999999999998,2,G3,314.80199999999996,3.974100000000001,49.54200000000001,9.0,0.0,0.0,3.0,0.0,48.0,1.0,0.0,0.0,1.0,0.0,79.03404593642107,3.1716780304409156,219.54299954784685
B-1349,"1,3-benzenediol, 4,6-dinitro-","InChI=1S/C6H4N2O6/c9-5-2-6(10)4(8(13)14)1-3(5)7(11)12/h1-2,9-10H",MBXIRNHACKAGPA-UHFFFAOYSA-N,O=[N+]([O-])c1cc([N+](=O)[O-])c(O)cc1O,-3.4086,0.0,1,G1,200.10599999999997,0.9142,43.08040000000001,14.0,6.0,2.0,8.0,2.0,74.0,1.0,0.0,0.0,1.0,126.74,76.32582206888858,3.4178886149330863,379.7779106905112
B-1350,"benzoic acid, 5-formyl-2-hydroxy-","InChI=1S/C8H6O4/c9-4-5-1-2-7(10)6(3-5)8(11)12/h1-4,10H,(H,11,12)",UTCFOFWMEPQCSR-UHFFFAOYSA-N,O=Cc1ccc(O)c(C(=O)O)c1,-2.6354,0.0,1,G1,166.13199999999998,0.9028999999999998,40.45360000000001,12.0,3.0,2.0,4.0,2.0,62.0,1.0,0.0,0.0,1.0,74.6,68.07279905276974,3.254192991842129,329.8297871570007
B-1357,"benzenesulfonic acid, 3-(dimethylamino)-","InChI=1S/C8H11NO3S/c1-9(2)7-4-3-5-8(6-7)13(10,11)12/h3-6H,1-2H3,(H,10,11,12)",SOKSKPNEBIDBOU-UHFFFAOYSA-N,CN(C)c1cccc(S(=O)(=O)O)c1,0.2983,0.0,1,G1,201.24699999999996,0.9993,50.583600000000025,13.0,3.0,1.0,5.0,2.0,72.0,1.0,0.0,0.0,1.0,57.61,77.54975702853417,3.212578736587859,397.6050956283562
B-1360,"3,4-dimethylbenzoic acid","InChI=1S/C9H10O2/c1-6-3-4-8(9(10)11)5-7(6)2/h3-5H,1-2H3,(H,10,11)/p-1",OPVAJFQBSDUNQA-UHFFFAOYSA-M,Cc1ccc(C(=O)[O-])cc1C,-3.0653,0.0,1,G1,149.16899999999998,0.6669399999999999,40.24650000000001,11.0,2.0,0.0,2.0,1.0,58.0,1.0,0.0,0.0,1.0,40.129999999999995,65.48198531492656,3.1515496683060507,289.6142492178085
B-1361,m-nitrobenzyl alcohol,"InChI=1S/C7H7NO3/c9-5-6-2-1-3-7(4-6)8(10)11/h1-4,9H,5H2",CWNPOQFCIIFQDM-UHFFFAOYSA-N,O=[N+]([O-])c1cccc(CO)c1,-2.4142,0.0,1,G1,153.13699999999997,1.0871,39.01920000000002,11.0,3.0,1.0,4.0,2.0,58.0,1.0,0.0,0.0,1.0,63.37,63.243554708589386,3.0058892189147386,272.1431256273244
B-1362,p-cyanobenzoic acid,"InChI=1S/C8H5NO2/c9-5-6-1-3-7(4-2-6)8(10)11/h1-4H,(H,10,11)",ADCUEPOHPCPMCE-UHFFFAOYSA-N,N#Cc1ccc(C(=O)O)cc1,-2.0885,0.0807500000000001,2,G3,147.13299999999998,1.2564799999999998,38.11630000000001,11.0,2.0,1.0,3.0,1.0,54.0,1.0,0.0,0.0,1.0,61.09,63.50962288199867,3.0316389681074445,307.8590974511937
B-1363,p-nitrobenzyl alcohol,"InChI=1S/C7H7NO3/c9-5-6-1-3-7(4-2-6)8(10)11/h1-4,9H,5H2",JKTYGPATCNUWKN-UHFFFAOYSA-N,O=[N+]([O-])c1ccc(CO)cc1,-1.8841,0.0,1,G1,153.13699999999997,1.0871,39.01920000000002,11.0,3.0,1.0,4.0,2.0,58.0,1.0,0.0,0.0,1.0,63.37,63.243554708589386,2.9138015626758045,254.89312562732437
B-1364,4-dimethylamino benzoic acid,"InChI=1S/C9H11NO2/c1-10(2)8-5-3-7(4-6-8)9(11)12/h3-6H,1-2H3,(H,11,12)",YDIYEOMDOWUDTJ-UHFFFAOYSA-N,CN(C)c1ccc(C(=O)O)cc1,-3.3979,0.0,1,G1,165.19199999999995,1.4508,47.72830000000002,12.0,2.0,1.0,3.0,2.0,64.0,1.0,0.0,0.0,1.0,40.54,71.24181898512994,2.9291455995407594,277.0849389236156
B-1365,m-hydroxybenzyl alcohol,"InChI=1S/C7H8O2/c8-5-6-2-1-3-7(9)4-6/h1-4,8-9H,5H2",OKVJCVWFVRATSG-UHFFFAOYSA-N,OCc1cccc(O)c1,-0.2678,0.0,1,G1,124.13899999999995,0.8844999999999998,34.029599999999995,9.0,2.0,2.0,2.0,1.0,48.0,1.0,0.0,0.0,1.0,40.46,53.3848127382856,2.9368661023365914,195.86256853719752
B-1366,"acetamide, 2-cyano-n-phenyl-","InChI=1S/C9H8N2O/c10-7-6-9(12)11-8-4-2-1-3-5-8/h1-5H,6H2,(H,11,12)",XCTQPMCULSZKLT-UHFFFAOYSA-N,N#CCC(=O)Nc1ccccc1,-2.7275,0.0,1,G1,160.17600000000002,1.5387799999999998,45.30170000000002,12.0,2.0,1.0,3.0,2.0,60.0,1.0,0.0,0.0,1.0,52.89,70.6301934278073,2.541829961180196,300.0546159437918
B-1367,m-hydroxyphenylacetic acid,"InChI=1S/C8H8O3/c9-7-3-1-2-6(4-7)5-8(10)11/h1-4,9H,5H2,(H,10,11)",FVMDYYGIDFPZAX-UHFFFAOYSA-N,O=C(O)Cc1cccc(O)c1,0.8177,0.0,1,G1,152.149,1.0193,39.44660000000002,11.0,2.0,2.0,3.0,2.0,58.0,1.0,0.0,0.0,1.0,57.53,63.91127695272596,2.7909314514807626,267.7946100817276
B-1369,4-methylphenylisothiocyanate,"InChI=1S/C8H7NS/c1-7-2-4-8(5-3-7)9-6-10/h2-5H,1H3",ABQKHKWXTUVKGF-UHFFFAOYSA-N,Cc1ccc(N=C=S)cc1,-4.7213,0.0,1,G1,149.218,2.7293200000000004,45.86500000000002,10.0,2.0,0.0,2.0,1.0,50.0,1.0,0.0,0.0,1.0,12.36,65.41539008135518,2.9960277321018163,257.0910097152755
B-1370,p-methylstyrene,"InChI=1S/C9H10/c1-3-9-6-4-8(2)5-7-9/h3-7H,1H2,2H3",JLBJTVDPSNHSKJ-UHFFFAOYSA-N,C=Cc1ccc(C)cc1,-3.1232,0.0,1,G1,118.179,2.638020000000001,41.27000000000002,9.0,0.0,0.0,0.0,1.0,46.0,1.0,0.0,0.0,1.0,0.0,55.83662643050253,3.009781947786601,193.78322454351996
B-1371,p-hydroxybenzyl alcohol,"InChI=1S/C7H8O2/c8-5-6-1-3-7(9)4-2-6/h1-4,8-9H,5H2",BVJSUAQZOZWCKN-UHFFFAOYSA-N,OCc1ccc(O)cc1,-1.2678,0.0,1,G1,124.13899999999995,0.8845000000000001,34.029599999999995,9.0,2.0,2.0,2.0,1.0,48.0,1.0,0.0,0.0,1.0,40.46,53.3848127382856,2.881555877646136,178.61256853719752
B-1373,"1,4-benzenedicarboxaldehyde",InChI=1S/C8H6O2/c9-5-7-1-2-8(6-10)4-3-7/h1-6H,KUCOHFSKRZZVRO-UHFFFAOYSA-N,O=Cc1ccc(C=O)cc1,-2.8265,0.0,1,G1,134.134,1.3116,37.217000000000006,10.0,2.0,0.0,2.0,2.0,50.0,1.0,0.0,0.0,1.0,34.14,58.4843315483777,2.999871950290996,208.93943338088377
B-1379,"1,4-diiodobenzene",InChI=1S/C6H4I2/c7-5-1-2-6(8)4-3-5/h1-4H,LFMWZTSOMGDDJU-UHFFFAOYSA-N,Ic1ccc(I)cc1,-5.3723,0.0,1,G1,329.906,2.8958000000000013,51.87600000000001,8.0,0.0,0.0,2.0,0.0,42.0,1.0,0.0,0.0,1.0,0.0,75.95507936158425,3.0324555320336755,145.38833891467198
B-1395,3-chloroiodobenzene,InChI=1S/C6H4ClI/c7-5-2-1-3-6(8)4-5/h1-4H,JMLWXCJXOYDXRN-UHFFFAOYSA-N,Clc1cccc(I)c1,-3.55,0.0089999999999998,2,G3,238.455,2.9446000000000003,44.16900000000001,8.0,0.0,0.0,2.0,0.0,42.0,1.0,0.0,0.0,1.0,0.0,66.99650746742228,3.077660437970554,168.38833891467198
B-1398,"1,3-benzenedimethanol","InChI=1S/C8H10O2/c9-5-7-2-1-3-8(4-7)6-10/h1-4,9-10H,5-6H2",YWMLORGQOFONNT-UHFFFAOYSA-N,OCc1cccc(CO)c1,-0.2328,0.0,1,G1,138.166,0.6712,38.287600000000005,10.0,2.0,2.0,2.0,2.0,54.0,1.0,0.0,0.0,1.0,40.46,59.749754852682194,2.8711457287957725,188.91749419417292
B-1433,tetrachlorophthalic acid,"InChI=1S/C8H2Cl4O4/c9-3-1(7(13)14)2(8(15)16)4(10)6(12)5(3)11/h(H,13,14)(H,15,16)",WZHHYIOUKQNLQM-UHFFFAOYSA-N,O=C(O)c1c(Cl)c(Cl)c(Cl)c(Cl)c1C(=O)O,-1.9264,0.0,1,G1,303.9120000000001,3.6966,60.4006,16.0,2.0,2.0,8.0,2.0,86.0,1.0,0.0,0.0,1.0,74.6,109.28586396029642,3.8318799145935873,452.5470570439152
B-1441,p-benzoquinone oxime,"InChI=1S/C6H5NO2/c8-6-3-1-5(7-9)2-4-6/h1-4,8H",JSTCPNFNKICNNO-UHFFFAOYSA-N,O=Nc1ccc(O)cc1,-1.5462,0.0,1,G1,123.111,1.7900999999999998,33.561800000000005,9.0,3.0,1.0,3.0,1.0,46.0,1.0,0.0,0.0,1.0,49.66,51.920368855923456,3.0097819477866,204.80277455217384
B-1451,acetyl benzoyl peroxide,"InChI=1S/C9H8O4/c1-7(10)12-13-9(11)8-5-3-2-4-6-8/h2-6H,1H3",PDAVOLCVHOKLEO-UHFFFAOYSA-N,CC(=O)OOC(=O)c1ccccc1,-2.4502,0.0,1,G1,180.159,1.3215,43.62350000000002,13.0,4.0,0.0,4.0,1.0,68.0,1.0,0.0,0.0,1.0,52.6,75.00565943752639,2.544573341953591,304.6505572752991
B-1452,4-propylphenol,"InChI=1S/C9H12O/c1-2-3-8-4-6-9(10)7-5-8/h4-7,10H,2-3H2,1H3",KLSLBUSXWBJMEC-UHFFFAOYSA-N,CCCc1ccc(O)cc1,-2.0276,0.0,1,G1,136.19399999999996,2.3447000000000005,42.10180000000002,10.0,1.0,1.0,1.0,2.0,54.0,1.0,0.0,0.0,1.0,20.23,61.3204632148828,2.693803452362809,188.3881691811921
B-1473,"benzene, iodyl-",InChI=1S/C6H5IO2/c8-7(9)6-4-2-1-3-5-6/h1-5H,BDOLQESNFGCNSC-UHFFFAOYSA-N,O=I(=O)c1ccccc1,-1.8416,0.0,1,G1,236.008,2.0536,40.53200000000002,9.0,2.0,0.0,3.0,1.0,48.0,1.0,0.0,0.0,1.0,34.14,60.04274075807905,3.1264726818773076,243.0201872896982
B-1474,"benzenamine, n,3-dimethyl-","InChI=1S/C8H11N/c1-7-4-3-5-8(6-7)9-2/h3-6,9H,1-2H3",FBGJJTQNZVNEQU-UHFFFAOYSA-N,CNc1cccc(C)c1,-2.05,0.0,1,G1,121.18299999999998,2.03672,40.72570000000001,9.0,1.0,1.0,1.0,1.0,48.0,1.0,0.0,0.0,1.0,12.03,55.71114953189822,2.9368661023365914,193.51405299160075
B-1476,3-ethyl-5-methylphenol,"InChI=1S/C9H12O/c1-3-8-4-7(2)5-9(10)6-8/h4-6,10H,3H2,1-2H3",XTCHLXABLZQNNN-UHFFFAOYSA-N,CCc1cc(C)cc(O)c1,-1.7696,0.0,1,G1,136.194,2.26302,42.22180000000002,10.0,1.0,1.0,1.0,1.0,54.0,1.0,0.0,0.0,1.0,20.23,61.3204632148828,3.061688151345299,207.9199174332443
B-1477,5-methyl-2-nitrophenol,"InChI=1S/C7H7NO3/c1-5-2-3-6(8(10)11)7(9)4-5/h2-4,9H,1H3",NQXUSSVLFOBRSE-UHFFFAOYSA-N,Cc1ccc([N+](=O)[O-])c(O)c1,-2.7505,0.0,1,G1,153.137,1.6088199999999997,39.49820000000002,11.0,3.0,1.0,4.0,1.0,58.0,1.0,0.0,0.0,1.0,63.37,63.243554708589386,3.1960696621259204,295.7372022742226
B-1482,"thiourea, 3-(nitrophenyl)-","InChI=1S/C7H7N3O2S/c8-7(13)9-5-2-1-3-6(4-5)10(11)12/h1-4H,(H3,8,9,13)",HQEMUQNZGCZHHN-UHFFFAOYSA-N,NC(=S)Nc1cccc([N+](=O)[O-])c1,-1.4499,0.0,1,G1,197.21899999999997,1.2503,53.5045,13.0,3.0,2.0,6.0,2.0,68.0,1.0,0.0,0.0,1.0,81.19,79.697854084219,2.9143561914867706,353.34582078313053
B-1486,tolyfluanide,"InChI=1S/C10H13Cl2FN2O2S2/c1-8-4-6-9(7-5-8)15(18-10(11,12)13)19(16,17)14(2)3/h4-7H,1-3H3",HYVWIQDYBVKITD-UHFFFAOYSA-N,Cc1ccc(N(SC(F)(Cl)Cl)S(=O)(=O)N(C)C)cc1,-5.5864,0.0,1,G1,347.26400000000007,3.314420000000002,79.40080000000003,19.0,3.0,0.0,9.0,5.0,108.0,1.0,0.0,0.0,1.0,40.620000000000005,126.33754771321703,3.2412240324996495,529.4557883959
B-1488,"2,4,6-tri(tert-butyl)phenol","InChI=1S/C18H30O/c1-16(2,3)12-10-13(17(4,5)6)15(19)14(11-12)18(7,8)9/h10-11,19H,1-9H3",PFEFOYRSMXVNEL-UHFFFAOYSA-N,CC(C)(C)c1cc(C(C)(C)C)c(O)c(C(C)(C)C)c1,-3.875,1.3723422575500002,2,G2,262.43699999999995,5.284700000000005,84.20680000000007,19.0,1.0,1.0,1.0,0.0,108.0,1.0,0.0,0.0,1.0,20.23,118.60494224445225,3.676482813059605,426.92947976472783
B-1489,bensulide,"InChI=1S/C14H24NO4PS3/c1-12(2)18-20(21,19-13(3)4)22-11-10-15-23(16,17)14-8-6-5-7-9-14/h5-9,12-13,15H,10-11H2,1-4H3",RRNIZKPFKNDSRS-UHFFFAOYSA-N,CC(C)OP(=S)(OC(C)C)SCCNS(=O)(=O)c1ccccc1,-4.2014,0.0,1,G1,397.52400000000006,3.7726000000000024,100.81550000000004,23.0,6.0,1.0,9.0,10.0,132.0,1.0,0.0,0.0,1.0,64.63,148.05362106327618,2.553910805634569,606.169366771198
B-1504,o-chloroanisole,"InChI=1S/C7H7ClO/c1-9-7-5-3-2-4-6(7)8/h2-5H,1H3",QGRPVMLBTFGQDQ-UHFFFAOYSA-N,COc1ccccc1Cl,-2.4639,0.0,1,G1,142.58499999999998,2.3486,38.00400000000001,9.0,1.0,0.0,2.0,1.0,48.0,1.0,0.0,0.0,1.0,9.23,59.213156690282126,3.0065240073265844,197.86256853719752
B-1524,"l-tyrosine, n-acetyl-, ethyl ester","InChI=1S/C13H17NO4/c1-3-18-13(17)12(14-9(2)15)8-10-4-6-11(16)7-5-10/h4-7,12,16H,3,8H2,1-2H3,(H,14,15)/t12-/m0/s1",SKAWDTAMLOJQNK-LBPRGKRZSA-N,CCOC(=O)[C@H](Cc1ccc(O)cc1)NC(C)=O,-1.8586,0.0,1,G1,251.282,1.0025,66.04850000000003,18.0,4.0,2.0,5.0,5.0,98.0,1.0,0.0,0.0,1.0,75.63,105.7666832856717,2.736963200997206,413.50435010953953