ID,Name,InChI,InChIKey,SMILES,Solubility,SD,Occurrences,Group,MolWt,MolLogP,MolMR,HeavyAtomCount,NumHAcceptors,NumHDonors,NumHeteroatoms,NumRotatableBonds,NumValenceElectrons,NumAromaticRings,NumSaturatedRings,NumAliphaticRings,RingCount,TPSA,LabuteASA,BalabanJ,BertzCT
B-3268,triasulfuron,"InChI=1S/C14H16ClN5O5S/c1-9-16-12(19-14(17-9)24-2)18-13(21)20-26(22,23)11-6-4-3-5-10(11)25-8-7-15/h3-6H,7-8H2,1-2H3,(H2,16,17,18,19,20,21)",XOPFESVZMSQIKC-UHFFFAOYSA-N,COc1nc(C)nc(NC(=O)NS(=O)(=O)c2ccccc2OCCCl)n1,-4.0989,0.0,1,G1,401.83200000000016,1.3166199999999997,93.11320000000003,26.0,8.0,2.0,12.0,7.0,140.0,2.0,0.0,0.0,2.0,132.4,154.52453088595394,2.166338351122616,893.0462737019291
B-3343,cinosulfuron,"InChI=1S/C15H19N5O7S/c1-24-8-9-27-10-6-4-5-7-11(10)28(22,23)20-13(21)16-12-17-14(25-2)19-15(18-12)26-3/h4-7H,8-9H2,1-3H3,(H2,16,17,18,19,20,21)",WMLPCIHUFDKWJU-UHFFFAOYSA-N,COCCOc1ccccc1S(=O)(=O)NC(=O)Nc1nc(OC)nc(OC)n1,-3.5372,0.0,1,G1,413.41200000000015,0.4244000000000001,96.08420000000004,28.0,10.0,2.0,13.0,9.0,152.0,2.0,0.0,0.0,2.0,150.86,160.81329723248265,2.152678569891716,900.4958257897268
B-3382,tribenuron-methyl,"InChI=1S/C15H17N5O6S/c1-9-16-13(18-14(17-9)26-4)20(2)15(22)19-27(23,24)11-8-6-5-7-10(11)12(21)25-3/h5-8H,1-4H3,(H,19,22)",VLCQZHSMCYCDJL-UHFFFAOYSA-N,COC(=O)c1ccccc1S(=O)(=O)NC(=O)N(C)c1nc(C)nc(OC)n1,-3.8981,0.0,1,G1,395.39700000000016,0.5099199999999997,93.01800000000004,27.0,9.0,1.0,12.0,5.0,144.0,2.0,0.0,0.0,2.0,140.68,154.95770036010794,2.319495171563986,978.4128342327296
B-3507,triflusulfuron-methyl,"InChI=1S/C16H17F3N6O6S/c1-8-5-4-6-9(11(26)27)10(8)32(29,30)24-14(28)21-12-20-13(25(2)3)23-15(22-12)31-7-16(17,18)19/h4-6H,7H2,1-3H3,(H,26,27)(H2,20,21,22,23,24,28)",AKTQJCBOGPBERP-UHFFFAOYSA-N,Cc1cccc(C(=O)O)c1S(=O)(=O)NC(=O)Nc1nc(OCC(F)(F)F)nc(N(C)C)n1,-5.6798,0.0,1,G1,478.40900000000016,1.3957199999999996,103.18250000000003,32.0,9.0,3.0,16.0,7.0,174.0,2.0,0.0,0.0,2.0,163.71000000000004,179.04979938958047,2.2922340715056473,1139.5691803099892
C-2435,chlorsulfuron,"InChI=1S/C12H12ClN5O4S/c1-7-14-10(17-12(15-7)22-2)16-11(19)18-23(20,21)9-6-4-3-5-8(9)13/h3-6H,1-2H3,(H2,14,15,16,17,18,19)",VJYIFXVZLXQVHO-UHFFFAOYSA-N,COc1nc(C)nc(NC(=O)NS(=O)(=O)c2ccccc2Cl)n1,-1.71,0.0,1,G1,357.77900000000005,1.3524199999999995,81.90820000000002,23.0,7.0,2.0,11.0,4.0,122.0,2.0,0.0,0.0,2.0,123.17,136.68110142765386,2.163978048157975,843.0947313914457
C-2564,triflusulfuron-methyl,"InChI=1S/C17H19F3N6O6S/c1-9-6-5-7-10(12(27)31-4)11(9)33(29,30)25-15(28)22-13-21-14(26(2)3)24-16(23-13)32-8-17(18,19)20/h5-7H,8H2,1-4H3,(H2,21,22,23,24,25,28)",IMEVJVISCHQJRM-UHFFFAOYSA-N,COC(=O)c1cccc(C)c1S(=O)(=O)NC(=O)Nc1nc(OCC(F)(F)F)nc(N(C)C)n1,-5.69,0.0,1,G1,492.4360000000002,1.48412,107.56270000000004,33.0,10.0,2.0,16.0,7.0,180.0,2.0,0.0,0.0,2.0,152.71,185.73405298128796,2.3036758830118567,1156.4163993793206
D-316,metsulfuron-methyl,"InChI=1S/C14H15N5O6S/c1-8-15-12(18-14(16-8)25-3)17-13(21)19-26(22,23)10-7-5-4-6-9(10)11(20)24-2/h4-7H,1-3H3,(H2,15,16,17,18,19,21)",RSMUVYRMZCOLBH-UHFFFAOYSA-N,COC(=O)c1ccccc1S(=O)(=O)NC(=O)Nc1nc(C)nc(OC)n1,-1.604,0.0,1,G1,381.3700000000001,0.4856199999999998,88.23770000000003,26.0,9.0,2.0,12.0,5.0,138.0,2.0,0.0,0.0,2.0,149.46999999999997,148.38278675911602,2.235964909573677,946.5935872985998
A-5219,"tetrasodium 4-amino-5-hydroxy-3,6-bis[(E)-2-{4-[2-(sulfonatooxy)ethanesulfonyl]phenyl}diazen-1-yl]naphthalene-2,7-disulfonate","InChI=1S/C26H25N5O19S6.4Na/c27-23-22-15(13-20(53(37,38)39)24(23)30-28-16-1-5-18(6-2-16)51(33,34)11-9-49-55(43,44)45)14-21(54(40,41)42)25(26(22)32)31-29-17-3-7-19(8-4-17)52(35,36)12-10-50-56(46,47)48;;;;/h1-8,13-14,29H,9-12,27H2,(H,37,38,39)(H,40,41,42)(H,43,44,45)(H,46,47,48);;;;/q;4*+1/p-4/b30-28?,31-25-;;;;",FWKNDLPEBIXZRV-FXJKTVKKSA-J,Nc1c(N=Nc2ccc(S(=O)(=O)CCOS(=O)(=O)[O-])cc2)c(S(=O)(=O)[O-])cc2c1C(=O)/C(=N\Nc1ccc(S(=O)(=O)CCOS(=O)(=O)[O-])cc1)C(S(=O)(=O)[O-])=C2.[Na+].[Na+].[Na+].[Na+],-0.2552865172,0.0,1,G1,991.8320000000004,-12.34420000000002,184.34399999999985,60.0,24.0,2.0,34.0,16.0,304.0,3.0,0.0,1.0,4.0,407.7399999999999,431.1972430980462,8.702490532815663e-06,2878.0092204595267
A-1599,"5-[(5-sulfanylidene-4,5-dihydro-1,3,4-thiadiazol-2-yl)disulfanyl]-2,3-dihydro-1,3,4-thiadiazole-2-thione","InChI=1S/C4H2N4S6/c9-1-5-7-3(11-1)13-14-4-8-6-2(10)12-4/h(H,5,9)(H,6,10)",DJCISYVIXPWVHY-UHFFFAOYSA-N,S=c1[nH]nc(SSc2n[nH]c(=S)s2)s1,-3.2522133148,0.0,1,G1,298.49,3.5141799999999996,66.3114,14.0,8.0,2.0,10.0,3.0,74.0,2.0,0.0,0.0,2.0,57.36,104.94846555846937,2.009003670325101,469.6690510777121
A-1243,(4R)-4-methyl-2-propyloxan-4-yl acetate (4S)-4-methyl-2-propyloxan-4-yl acetate,"InChI=1S/2C11H20O3/c2*1-4-5-10-8-11(3,6-7-13-10)14-9(2)12/h2*10H,4-8H2,1-3H3/t2*10?,11-/m10/s1",TWUVPRFPARHRLV-URIZOGIISA-N,CCCC1C[C@@](C)(OC(C)=O)CCO1.CCCC1C[C@](C)(OC(C)=O)CCO1,-2.2047232328,0.0,1,G1,400.55600000000027,4.574600000000005,108.1060000000001,28.0,6.0,0.0,6.0,6.0,164.0,0.0,2.0,2.0,2.0,71.06,170.1744293947442,2.799999918285717e-07,445.4186496433476
F-1125,[1-[(6-chloropyridin-3-yl)methyl]-3-methylimidazolidin-2-ylidene]cyanamide,"InChI=1S/C11H12ClN5/c1-16-4-5-17(11(16)15-8-13)7-9-2-3-10(12)14-6-9/h2-3,6H,4-5,7H2,1H3",FAAKQHWYELHYCG-UHFFFAOYSA-N,CN1CCN(Cc2ccc(Cl)nc2)C1=NC#N,-2.13,0.0,1,G1,249.705,1.3194799999999998,65.33500000000002,17.0,3.0,0.0,6.0,2.0,88.0,1.0,1.0,1.0,2.0,55.52,104.94570836791117,2.113165442141155,461.7452889322119
F-1127,"[1-[(6-chloropyridin-3-yl)methyl]-4,5-dihydroimidazol-2-yl]cyanamide","InChI=1S/C10H10ClN5/c11-9-2-1-8(5-14-9)6-16-4-3-13-10(16)15-7-12/h1-2,5H,3-4,6H2,(H,13,15)",QNSLBNMSETUZJN-UHFFFAOYSA-N,N#CN=C1NCCN1Cc1ccc(Cl)nc1,-2.63,0.0,1,G1,235.67800000000005,0.9772799999999996,60.707700000000024,16.0,3.0,1.0,6.0,2.0,82.0,1.0,1.0,1.0,2.0,64.31,98.37079476691922,2.072066933449349,433.51776544468623
B-4565,cortisone acetate,"InChI=1S/C23H30O6/c1-13(24)29-12-19(27)23(28)9-7-17-16-5-4-14-10-15(25)6-8-21(14,2)20(16)18(26)11-22(17,23)3/h10,16-17,20,28H,4-9,11-12H2,1-3H3/t16-,17-,20+,21-,22-,23-/m0/s1",ITRJWOMZKQRYTA-RFZYENFJSA-N,CC(=O)OCC(=O)[C@@]1(O)CC[C@H]2[C@@H]3CCC4=CC(=O)CC[C@]4(C)[C@H]3C(=O)C[C@@]21C,-4.3037,0.0,1,G1,402.48700000000025,2.560600000000001,103.68980000000006,29.0,6.0,1.0,6.0,3.0,158.0,0.0,3.0,4.0,4.0,97.74,170.60891728013172,1.6645960183635236,827.2246952751074
B-4570,cortisone,"InChI=1S/C21H28O5/c1-19-7-5-13(23)9-12(19)3-4-14-15-6-8-21(26,17(25)11-22)20(15,2)10-16(24)18(14)19/h9,14-15,18,22,26H,3-8,10-11H2,1-2H3/t14-,15-,18+,19-,20-,21-/m0/s1",MFYSYFVPBJMHGN-ZPOLXVRWSA-N,C[C@]12CCC(=O)C=C1CC[C@@H]1[C@@H]2C(=O)C[C@@]2(C)[C@H]1CC[C@]2(O)C(=O)CO,-3.1097,0.0,1,G1,360.45000000000016,1.9898,94.14260000000004,26.0,5.0,2.0,5.0,2.0,142.0,0.0,3.0,4.0,4.0,91.67,153.39819947398388,1.7481728292749803,723.9130815015496
A-3596,(2S)-3-methyl-2-[pentanoyl-[[4-[2-(2H-tetrazol-5-yl)phenyl]phenyl]methyl]amino]butanoic acid,"InChI=1S/C24H29N5O3/c1-4-5-10-21(30)29(22(16(2)3)24(31)32)15-17-11-13-18(14-12-17)19-8-6-7-9-20(19)23-25-27-28-26-23/h6-9,11-14,16,22H,4-5,10,15H2,1-3H3,(H,31,32)(H,25,26,27,28)/t22-/m0/s1",ACWBQPMHZXGDFX-QFIPXVFZSA-N,CCCCC(=O)N(Cc1ccc(-c2ccccc2-c2nn[nH]n2)cc1)[C@H](C(=O)O)C(C)C,-2.7359260939,0.0,1,G1,435.5280000000002,4.161700000000002,121.38650000000008,32.0,5.0,2.0,8.0,10.0,168.0,3.0,0.0,0.0,3.0,112.07000000000002,187.21053148154263,1.8705600872018624,1032.0529522380773
B-291,riboflavin,"InChI=1S/C17H20N4O6/c1-7-3-9-10(4-8(7)2)21(5-11(23)14(25)12(24)6-22)15-13(18-9)16(26)20-17(27)19-15/h3-4,11-12,14,22-25H,5-6H2,1-2H3,(H,20,26,27)",AUNGANRZJHBGPY-UHFFFAOYSA-N,Cc1cc2nc3c(=O)[nH]c(=O)nc-3n(CC(O)C(O)C(O)CO)c2cc1C,-3.6478,0.0416782383931417,3,G5,376.36900000000014,-1.7235599999999989,95.6209,27.0,9.0,5.0,10.0,5.0,144.0,1.0,0.0,2.0,3.0,161.56,152.29232415746102,2.2752894120966243,1075.453994856704
A-5676,ethyl 9-oxo-9H-thioxanthene-2-carboxylate,"InChI=1S/C16H12O3S/c1-2-19-16(18)10-7-8-14-12(9-10)15(17)11-5-3-4-6-13(11)20-14/h3-9H,2H2,1H3",PKUZBJXWIOTQFQ-UHFFFAOYSA-N,CCOC(=O)c1ccc2sc3ccccc3c(=O)c2c1,-6.756602506799999,0.0,1,G1,284.336,3.591400000000002,81.55750000000003,20.0,4.0,0.0,4.0,2.0,100.0,3.0,0.0,0.0,3.0,43.370000000000005,118.97699878609532,2.284391424886096,864.3497840043177
F-448,"2-(3-hydroxy-2,5-dioxo-1-phenylpyrrolidin-3-yl)acetic acid","InChI=1S/C12H11NO5/c14-9-6-12(18,7-10(15)16)11(17)13(9)8-4-2-1-3-5-8/h1-5,18H,6-7H2,(H,15,16)",SBUJOYSGTMYVDY-UHFFFAOYSA-N,O=C(O)CC1(O)CC(=O)N(c2ccccc2)C1=O,-0.68,0.0,1,G1,249.222,0.1556999999999999,60.754600000000025,18.0,4.0,2.0,6.0,3.0,94.0,1.0,1.0,1.0,2.0,94.91,102.4480921270741,2.332408243356345,512.4588719720276
A-2994,"disodium 3-[(E)-2-[4-(1-{4-[(E)-2-(1,7-dihydroxy-3-sulfonatonaphthalen-2-yl)diazen-1-yl]-3-methylphenyl}cyclohexyl)-2-methylphenyl]diazen-1-yl]-4,6-dihydroxynaphthalene-2-sulfonate","InChI=1S/C40H36N4O10S2.2Na/c1-22-16-26(8-12-32(22)41-43-36-34(55(49,50)51)18-24-6-10-28(45)20-30(24)38(36)47)40(14-4-3-5-15-40)27-9-13-33(23(2)17-27)42-44-37-35(56(52,53)54)19-25-7-11-29(46)21-31(25)39(37)48;;/h6-13,16-21,41-44H,3-5,14-15H2,1-2H3,(H,49,50,51)(H,52,53,54);;/q;2*+1/p-2",FEGFQZKEEWPHPY-UHFFFAOYSA-L,Cc1cc(C2(c3ccc(NNC4=C(S(=O)(=O)[O-])C=C5C=CC(=O)C=C5C4=O)c(C)c3)CCCCC2)ccc1NNC1=C(S(=O)(=O)[O-])C=C2C=CC(=O)C=C2C1=O.[Na+].[Na+],-0.8547884607999999,0.0,1,G1,840.8440000000003,-1.942959999999988,203.8261999999997,58.0,14.0,4.0,18.0,10.0,288.0,2.0,1.0,5.0,7.0,230.79999999999995,379.03077694412815,3.2033263951183204e-06,2488.2065802929565
C-1690,"5,5-spirononamethylenebarbituric acid","InChI=1S/C13H20N2O3/c16-10-13(11(17)15-12(18)14-10)8-6-4-2-1-3-5-7-9-13/h1-9H2,(H2,14,15,16,17,18)",JXEFLYKRWPXVBB-UHFFFAOYSA-N,O=C1NC(=O)C2(CCCCCCCCC2)C(=O)N1,-4.59,0.0,1,G1,252.3139999999999,1.8633,65.66740000000003,18.0,3.0,2.0,5.0,0.0,100.0,0.0,2.0,2.0,2.0,75.27,106.6911847608778,2.1472726242989704,333.24785737411156
A-610,hexanedioic acid - piperazine (1:1),"InChI=1S/C6H10O4.C4H10N2/c7-5(8)3-1-2-4-6(9)10;1-2-6-4-3-5-1/h1-4H2,(H,7,8)(H,9,10);5-6H,1-4H2",BVEGEKOBSPXUJS-UHFFFAOYSA-N,C1CNCCN1.O=C(O)CCCCC(=O)O,-0.6232866861,0.0387381641,2,G3,232.28,-0.1047999999999986,59.479000000000035,16.0,4.0,4.0,6.0,5.0,94.0,0.0,1.0,1.0,1.0,98.66,95.03496612909468,3.1499998902333376e-07,177.48593526684053
A-3034,2-[4-(2-sulfoethyl)piperazin-1-yl]ethane-1-sulfonic acid,"InChI=1S/C8H18N2O6S2.Na/c11-17(12,13)7-5-9-1-2-10(4-3-9)6-8-18(14,15)16;/h1-8H2,(H,11,12,13)(H,14,15,16);/q;+1/p-1",OGGAIRCLBMGXCZ-UHFFFAOYSA-M,O=S(=O)([O-])CCN1CCN(CCS(=O)(=O)O)CC1.[Na+],-2.7475939424,0.0,1,G1,324.356,-4.958999999999995,63.859800000000035,19.0,7.0,1.0,11.0,6.0,108.0,0.0,1.0,1.0,1.0,118.04999999999998,135.47835365827655,3.2399975916018463e-06,413.6308301911834
A-3262,2-[4-(2-hydroxyethyl)piperazin-1-yl]ethanesulfonic acid,"InChI=1S/C8H18N2O4S.Na/c11-7-5-9-1-3-10(4-2-9)6-8-15(12,13)14;/h11H,1-8H2,(H,12,13,14);/q;+1/p-1",RDZTWEVXRGYCFV-UHFFFAOYSA-M,O=S(=O)([O-])CCN1CCN(CCO)CC1.[Na+],0.4318666789,0.0163721266499999,2,G3,260.291,-4.854499999999995,54.53000000000005,16.0,6.0,1.0,8.0,5.0,90.0,0.0,1.0,1.0,1.0,83.91,118.64395140043187,2.249998813500648e-06,277.76289771739926
A-3467,"bis(2-hydroxypropane-1,2,3-tricarboxylic acid); tris(piperazine)","InChI=1S/C6H8O7.C4H10N2/c7-3(8)1-6(13,5(11)12)2-4(9)10;1-2-6-4-3-5-1/h13H,1-2H2,(H,7,8)(H,9,10)(H,11,12);5-6H,1-4H2",SWDXALWLRYIJHK-UHFFFAOYSA-N,C1CNCCN1.O=C(O)CC(O)(CC(=O)O)C(=O)O,0.2879414183,0.0,1,G1,278.26099999999997,-2.0692999999999966,62.830600000000025,19.0,6.0,6.0,9.0,5.0,110.0,0.0,1.0,1.0,1.0,156.19000000000003,108.78495573353048,4.430769031142762e-07,300.3300823478244
A-5311,"1,4-dimethylpiperazine","InChI=1S/C6H14N2/c1-7-3-5-8(2)6-4-7/h3-6H2,1-2H3",RXYPXQSKLGGKOL-UHFFFAOYSA-N,CN1CCN(C)CC1,0.9423643206,0.0,1,G1,114.192,-0.1364,34.99399999999999,8.0,2.0,0.0,2.0,0.0,48.0,0.0,1.0,1.0,1.0,6.48,51.0777977866901,2.1923771580194713,54.92878689342032
A-5386,2-(piperazin-1-yl)ethan-1-amine,"InChI=1S/C6H15N3/c7-1-4-9-5-2-8-3-6-9/h8H,1-7H2",IMUDHTPIFIBORV-UHFFFAOYSA-N,NCCN1CCNCC1,-0.1112860428999999,0.0,1,G1,129.207,-1.1496999999999988,38.36410000000001,9.0,3.0,2.0,3.0,2.0,54.0,0.0,1.0,1.0,1.0,41.29,56.20771699710748,2.077860755461056,65.94833690207419
B-569,"piperazine, 2-methyl-","InChI=1S/C5H12N2/c1-5-4-6-2-3-7-5/h5-7H,2-4H2,1H3",JOMNTHCQHJPVAZ-UHFFFAOYSA-N,CC1CNCCN1,0.6378,0.0510999999999999,2,G3,100.165,-0.4323000000000001,30.334399999999988,7.0,2.0,2.0,2.0,0.0,42.0,0.0,1.0,1.0,1.0,24.06,44.29291269910284,2.1229179499593664,48.041843979966416
B-609,piperazine,"InChI=1S/C4H10N2/c1-2-6-4-3-5-1/h5-6H,1-4H2",GLUUGHFHXGJENI-UHFFFAOYSA-N,C1CNCCN1,1.0648,0.0,1,G1,86.138,-0.8208,25.739399999999993,6.0,2.0,2.0,2.0,0.0,36.0,0.0,1.0,1.0,1.0,24.06,37.92797058470623,2.0,21.019550008653873
B-828,piperazine hydrochloride,"InChI=1S/C4H10N2.2ClH/c1-2-6-4-3-5-1;;/h5-6H,1-4H2;2*1H",CVVIJWRCGSYCMB-UHFFFAOYSA-N,C1CNCCN1.[Cl-].[Cl-].[H+].[H+],0.4112,0.0,1,G1,159.06,-6.587799999999998,27.963399999999993,8.0,2.0,2.0,4.0,0.0,52.0,0.0,1.0,1.0,1.0,24.06,65.20375382879612,-4.4999998987500026e-08,34.72905595320056
B-2165,"1,4-piperazinedicarboxylic acid, diethyl ester","InChI=1S/C10H18N2O4/c1-3-15-9(13)11-5-7-12(8-6-11)10(14)16-4-2/h3-8H2,1-2H3",NAEAAGULDNVNCW-UHFFFAOYSA-N,CCOC(=O)N1CCN(C(=O)OCC)CC1,-0.7288,0.0,1,G1,230.26399999999995,0.9170000000000004,57.19000000000003,16.0,4.0,0.0,6.0,2.0,92.0,0.0,1.0,1.0,1.0,59.08,95.0877009033778,2.3310803559126754,223.2035843944632
C-406,triforine,"InChI=1S/C10H14Cl6N4O2/c11-9(12,13)7(17-5-21)19-1-2-20(4-3-19)8(18-6-22)10(14,15)16/h5-8H,1-4H2,(H,17,21)(H,18,22)",RROQIUMZODEXOR-UHFFFAOYSA-N,O=CNC(N1CCN(C(NC=O)C(Cl)(Cl)Cl)CC1)C(Cl)(Cl)Cl,-4.16,0.0150000000000001,2,G3,434.966,1.4885999999999997,89.70140000000002,22.0,4.0,2.0,12.0,6.0,128.0,0.0,1.0,1.0,1.0,64.68,157.77993217287025,2.715463548997536,344.5934897520126
C-1531,"2,5-dimethylpiperazine (trans)","InChI=1S/C6H14N2/c1-5-3-8-6(2)4-7-5/h5-8H,3-4H2,1-2H3",NSMWYRLQHIXVAP-UHFFFAOYSA-N,CC1CNC(C)CN1,0.49,0.0,1,G1,114.192,-0.0438,34.92939999999999,8.0,2.0,2.0,2.0,0.0,48.0,0.0,1.0,1.0,1.0,24.06,50.65785481349944,2.1923771580194713,54.92878689342032
F-292,"Ethyl 4-carbamoyl-2,5-dimethyl-1-piperazinecarboxylate","InChI=1S/C10H19N3O3/c1-4-16-10(15)13-6-7(2)12(9(11)14)5-8(13)3/h7-8H,4-6H2,1-3H3,(H2,11,14)",OIYNUXGBWMDNGC-UHFFFAOYSA-N,CCOC(=O)N1CC(C)N(C(N)=O)CC1C,-0.55,0.0,1,G1,229.27999999999997,0.6162,58.94140000000004,16.0,3.0,1.0,6.0,1.0,92.0,0.0,1.0,1.0,1.0,75.87,95.31404637088366,2.660172459491479,282.4828196820253
F-408,ethyl 4-(ethylcarbamothioyl)piperazine-1-carboxylate,"InChI=1S/C10H19N3O2S/c1-3-11-9(16)12-5-7-13(8-6-12)10(14)15-4-2/h3-8H2,1-2H3,(H,11,16)",XBLAEBYYJMOIDO-UHFFFAOYSA-N,CCNC(=S)N1CCN(C(=O)OCC)CC1,-1.79,0.0,1,G1,245.34799999999996,0.6549,66.44270000000003,16.0,3.0,1.0,6.0,2.0,92.0,0.0,1.0,1.0,1.0,44.81,101.7212760046401,2.3310803559126754,226.44869689229975
F-705,ethyl 4-methylpiperazine-1-carboxylate,"InChI=1S/C8H16N2O2/c1-3-12-8(11)10-6-4-9(2)5-7-10/h3-7H2,1-2H3",USYYUUDWGLOMDJ-UHFFFAOYSA-N,CCOC(=O)N1CCN(C)CC1,1.13,0.0,1,G1,172.22799999999998,0.3903000000000001,46.09200000000003,12.0,3.0,0.0,4.0,1.0,70.0,0.0,1.0,1.0,1.0,32.78,73.08274934503396,2.288113817979868,153.13685006057713
F-706,"ethyl 2,5-dimethylpiperazine-1-carboxylate","InChI=1S/C9H18N2O2/c1-4-13-9(12)11-6-7(2)10-5-8(11)3/h7-8,10H,4-6H2,1-3H3",VVZAIGZNZMZDFX-UHFFFAOYSA-N,CCOC(=O)N1CC(C)NCC1C,0.65,0.0,1,G1,186.255,0.8251000000000002,50.65470000000004,13.0,3.0,1.0,4.0,1.0,76.0,0.0,1.0,1.0,1.0,41.57,79.23771997283524,2.495359274771114,184.45351511834787
F-709,"2,5-dimethylpiperazine-1,4-dicarboximidamide","InChI=1S/C8H18N6/c1-5-3-14(8(11)12)6(2)4-13(5)7(9)10/h5-6H,3-4H2,1-2H3,(H3,9,10)(H3,11,12)",QLZCZJVQGUKZPE-UHFFFAOYSA-N,CC1CN(C(=N)N)C(C)CN1C(=N)N,0.02,0.0,1,G1,198.274,-0.8320599999999987,56.16420000000001,14.0,2.0,4.0,6.0,0.0,80.0,0.0,1.0,1.0,1.0,106.22,83.85816540803833,2.7102601393263512,224.21605924781636
C-2480,"2-sulfamoyl-4-methyl-5-(4-tolylsulfonylimido)-1,3,4-thiadiazoline; 5-(4-methylbenzenesulfonylimido)-4-methyl-delta2-1,3,4-thiadiazoline-2-sulfonamide","InChI=1S/C10H12N4O4S3/c1-7-3-5-8(6-4-7)21(17,18)13-9-14(2)12-10(19-9)20(11,15)16/h3-6H,1-2H3,(H2,11,15,16)",JGNXJEMYLRMWGB-UHFFFAOYSA-N,Cc1ccc(S(=O)(=O)N=c2sc(S(N)(=O)=O)nn2C)cc1,-2.84,0.0,1,G1,348.4310000000001,-0.2729799999999994,76.38600000000002,21.0,7.0,1.0,11.0,3.0,114.0,2.0,0.0,0.0,2.0,124.48,125.2332308093618,2.57840316906822,936.9341796344464
C-2486,"5-(4-fluorobenzenesulfonylimido)-4-methyl-2-sulfonamido-delta2-1,3,4-thiadiazoline","InChI=1S/C9H9FN4O4S3/c1-14-8(19-9(12-14)20(11,15)16)13-21(17,18)7-4-2-6(10)3-5-7/h2-5H,1H3,(H2,11,15,16)",YTIHPYNMOXPHQK-UHFFFAOYSA-N,Cn1nc(S(N)(=O)=O)sc1=NS(=O)(=O)c1ccc(F)cc1,-2.03,0.0,1,G1,352.39400000000006,-0.4422999999999996,71.60700000000001,21.0,7.0,1.0,12.0,3.0,114.0,2.0,0.0,0.0,2.0,124.48,123.0338240978914,2.57840316906822,941.6241355703394
C-2489,"5-(4-aminobenzenesulfonylimido)-4-methyl-delta2-1,3,4-thiadiazoline-2-sulfonamide","InChI=1S/C9H11N5O4S3/c1-14-8(19-9(12-14)20(11,15)16)13-21(17,18)7-4-2-6(10)3-5-7/h2-5H,10H2,1H3,(H2,11,15,16)",BKCXBMXTXLGZCV-UHFFFAOYSA-N,Cn1nc(S(N)(=O)=O)sc1=NS(=O)(=O)c1ccc(N)cc1,-2.5,0.0,1,G1,349.4190000000001,-0.9991999999999988,76.0614,21.0,8.0,2.0,12.0,3.0,114.0,2.0,0.0,0.0,2.0,150.49999999999997,124.2081793919779,2.57840316906822,938.0144950959024
C-2491,"5-(3-aminobenzenesulfonylimido)-4-methyl-delta2-1,3,4-thiadiazoline-2-sulfonamide","InChI=1S/C9H11N5O4S3/c1-14-8(19-9(12-14)20(11,15)16)13-21(17,18)7-4-2-3-6(10)5-7/h2-5H,10H2,1H3,(H2,11,15,16)",KVTLULGYZIGEGB-UHFFFAOYSA-N,Cn1nc(S(N)(=O)=O)sc1=NS(=O)(=O)c1cccc(N)c1,-2.45,0.0,1,G1,349.4190000000001,-0.9991999999999988,76.0614,21.0,8.0,2.0,12.0,3.0,114.0,2.0,0.0,0.0,2.0,150.49999999999997,124.2081793919779,2.6099671295210207,955.2644950959028
C-2497,"5-(4-chlorobenzenesulfonylimido)-4-methyl-2-sulfonamido-delta2-1,3,4-thiadiazoline","InChI=1S/C9H9ClN4O4S3/c1-14-8(19-9(12-14)20(11,15)16)13-21(17,18)7-4-2-6(10)3-5-7/h2-5H,1H3,(H2,11,15,16)",SYUHFMCJTDEIBB-UHFFFAOYSA-N,Cn1nc(S(N)(=O)=O)sc1=NS(=O)(=O)c1ccc(Cl)cc1,-2.44,0.0,1,G1,368.8490000000001,0.0720000000000004,76.65900000000002,21.0,7.0,1.0,12.0,3.0,114.0,2.0,0.0,0.0,2.0,124.48,129.17155492184685,2.57840316906822,941.6241355703394
C-2505,"2-sulfamoyl-4-methyl-5-(4-anisylsulfonylimido)-1,3,4-thiadiazoline; 5-(4-methoxybenzenesulfonylimido)-4-methyl-delta2-1,3,4-thiadiazoline-2-sulfonamide","InChI=1S/C10H12N4O5S3/c1-14-9(20-10(12-14)21(11,15)16)13-22(17,18)8-5-3-7(19-2)4-6-8/h3-6H,1-2H3,(H2,11,15,16)",GXFOJGQBUWNOTA-UHFFFAOYSA-N,COc1ccc(S(=O)(=O)N=c2sc(S(N)(=O)=O)nn2C)cc1,-2.76,0.0,1,G1,364.43000000000006,-0.5727999999999993,78.20100000000002,22.0,8.0,1.0,12.0,4.0,120.0,2.0,0.0,0.0,2.0,133.71,130.34677603886863,2.5295281263358396,954.7360902176824
C-2516,"2-sulfamoyl-5-(2,4,6-trimethylbenzenesulfonylimido)-4-methyl-1,3,4-thiadiazoline","InChI=1S/C12H16N4O4S3/c1-7-5-8(2)10(9(3)6-7)23(19,20)15-11-16(4)14-12(21-11)22(13,17)18/h5-6H,1-4H3,(H2,13,17,18)",QSVMFFQOVYIPQM-UHFFFAOYSA-N,Cc1cc(C)c(S(=O)(=O)N=c2sc(S(N)(=O)=O)nn2C)c(C)c1,-3.0,0.0,1,G1,376.4850000000001,0.3438600000000004,85.86000000000003,23.0,7.0,1.0,11.0,3.0,126.0,2.0,0.0,0.0,2.0,124.48,137.96311503815502,2.705214021670626,1023.2103334645228
C-2522,"5-(4-bromobenzenesulfonylimido)-4-methyl-2-sulfonamido-delta2-1,3,4-thiadiazoline","InChI=1S/C9H9BrN4O4S3/c1-14-8(19-9(12-14)20(11,15)16)13-21(17,18)7-4-2-6(10)3-5-7/h2-5H,1H3,(H2,11,15,16)",OOQVFGGUMHVRKM-UHFFFAOYSA-N,Cn1nc(S(N)(=O)=O)sc1=NS(=O)(=O)c1ccc(Br)cc1,-2.51,0.0,1,G1,413.30000000000007,0.1811000000000006,79.34900000000002,21.0,7.0,1.0,12.0,3.0,114.0,2.0,0.0,0.0,2.0,124.48,132.73583630060656,2.57840316906822,941.6241355703394
C-2529,"4-methyl-5-(4-nitrobenzenesulfonylimido)-delta2-1,3,4-thiadiazoline-2-sulfonamide","InChI=1S/C9H9N5O6S3/c1-13-8(21-9(11-13)22(10,17)18)12-23(19,20)7-4-2-6(3-5-7)14(15)16/h2-5H,1H3,(H2,10,17,18)",NJBKUDDWNAXHHT-UHFFFAOYSA-N,Cn1nc(S(N)(=O)=O)sc1=NS(=O)(=O)c1ccc([N+](=O)[O-])cc1,-2.7,0.0,1,G1,379.4010000000001,-0.6731999999999998,78.30340000000001,23.0,9.0,1.0,14.0,4.0,124.0,2.0,0.0,0.0,2.0,167.62,133.52126441746498,2.5281229181826497,1032.090917985759