ID,Name,InChI,InChIKey,SMILES,Solubility,SD,Occurrences,Group,MolWt,MolLogP,MolMR,HeavyAtomCount,NumHAcceptors,NumHDonors,NumHeteroatoms,NumRotatableBonds,NumValenceElectrons,NumAromaticRings,NumSaturatedRings,NumAliphaticRings,RingCount,TPSA,LabuteASA,BalabanJ,BertzCT
C-1054,dicumarol;  dicoumarol,"InChI=1S/C19H12O6/c20-16-10-5-1-3-7-14(10)24-18(22)12(16)9-13-17(21)11-6-2-4-8-15(11)25-19(13)23/h1-8,20-21H,9H2",DOBMPNYZJYQDGZ-UHFFFAOYSA-N,O=c1oc2ccccc2c(O)c1Cc1c(O)c2ccccc2oc1=O,-4.27,0.0,1,G1,336.29900000000004,2.9014000000000006,91.1036,25.0,6.0,2.0,6.0,2.0,124.0,4.0,0.0,0.0,4.0,100.88,139.73791385592563,1.9454274018179325,1135.0684424393062
E-1268,Ethyl_Biscoumacetate,"InChI=1S/C22H16O8/c1-2-28-20(25)15(16-18(23)11-7-3-5-9-13(11)29-21(16)26)17-19(24)12-8-4-6-10-14(12)30-22(17)27/h3-10,15,23-24H,2H2,1H3",JCLHQFUTFHUXNN-UHFFFAOYSA-N,CCOC(=O)C(c1c(O)c2ccccc2oc1=O)c1c(O)c2ccccc2oc1=O,-3.66,0.1149999999999999,2,G3,408.3620000000001,3.005600000000001,106.77360000000004,30.0,8.0,2.0,8.0,4.0,152.0,4.0,0.0,0.0,4.0,127.18000000000002,168.10780752866614,2.0893836866240267,1296.934232507448
A-4238,"4-[(2,4-dichloro-5-methoxyphenyl)amino]-6-methoxy-7-[3-(4-methylpiperazin-1-yl)propoxy]quinoline-3-carbonitrile","InChI=1S/C26H29Cl2N5O3/c1-32-6-8-33(9-7-32)5-4-10-36-25-13-21-18(11-24(25)35-3)26(17(15-29)16-30-21)31-22-14-23(34-2)20(28)12-19(22)27/h11-14,16H,4-10H2,1-3H3,(H,30,31)",UBPYILGKFZZVDX-UHFFFAOYSA-N,COc1cc(Nc2c(C#N)cnc3cc(OCCCN4CCN(C)CC4)c(OC)cc23)c(Cl)cc1Cl,-4.8795513261000005,0.1839883926499994,2,G3,530.4560000000004,5.190380000000005,143.35569999999984,36.0,8.0,1.0,10.0,9.0,190.0,3.0,1.0,1.0,4.0,82.88,220.80761929084372,1.5708066366430866,1272.8949540436165
C-2299,cephalexin,"InChI=1S/C16H17N3O4S/c1-8-7-24-15-11(14(21)19(15)12(8)16(22)23)18-13(20)10(17)9-5-3-2-4-6-9/h2-6,10-11,15H,7,17H2,1H3,(H,18,20)(H,22,23)",ZAIPMKNFIOOWCQ-UHFFFAOYSA-N,CC1=C(C(=O)O)N2C(=O)C(NC(=O)C(N)c3ccccc3)C2SC1,-1.58,0.0,1,G1,347.39600000000013,0.4448999999999989,88.72890000000005,24.0,5.0,3.0,8.0,4.0,126.0,1.0,1.0,2.0,3.0,112.73000000000002,142.43105555273704,1.7144846348891027,734.0978878877091
C-1955,"2,4,7(1h,3h,8h)-pteridinetrione;  2,4,7-pteridinetrione","InChI=1S/C6H4N4O3/c11-2-1-7-3-4(8-2)9-6(13)10-5(3)12/h1H,(H3,8,9,10,11,12,13)",BCVUYVOMXUKYFC-UHFFFAOYSA-N,O=c1cnc2c(=O)[nH]c(=O)[nH]c2[nH]1,-3.34,0.0,1,G1,180.123,-1.7003,43.60509999999999,13.0,4.0,3.0,7.0,0.0,66.0,2.0,0.0,0.0,2.0,111.46999999999998,69.47622587514951,3.1215241986373403,614.5424608906916
A-2947,"octahydrocyclopenta[c]pyrrole-1,3-dione","InChI=1S/C7H9NO2/c9-6-4-2-1-3-5(4)7(10)8-6/h4-5H,1-3H2,(H,8,9,10)",QCWDCTDYSDJKTP-UHFFFAOYSA-N,O=C1NC(=O)C2CCCC12,0.1553573817,0.0,1,G1,139.154,0.0590999999999994,33.98069999999999,10.0,2.0,1.0,3.0,0.0,54.0,0.0,2.0,2.0,2.0,46.17,58.79014779084631,2.265142957607116,179.7827877145115
F-1189,"7-Chloro-2',4'-dihydroxy-4,6-dimethoxy-6'-methyl-3H-spiro[1-benzofuran-2,1'-cyclohexan]-3-one","InChI=1S/C16H19ClO6/c1-7-4-8(18)5-11(19)16(7)15(20)12-9(21-2)6-10(22-3)13(17)14(12)23-16/h6-8,11,18-19H,4-5H2,1-3H3",OOMRSSASWJQHLA-UHFFFAOYSA-N,COc1cc(OC)c2c(c1Cl)OC1(C2=O)C(C)CC(O)CC1O,-2.34,0.0,1,G1,342.77500000000003,1.8227999999999995,82.65710000000003,23.0,6.0,2.0,7.0,2.0,126.0,1.0,1.0,2.0,3.0,85.22000000000001,138.4630534762427,2.1692920828986697,646.4608126355921
E-985,Mepazine,"InChI=1S/C19H22N2S/c1-20-12-6-7-15(13-20)14-21-16-8-2-4-10-18(16)22-19-11-5-3-9-17(19)21/h2-5,8-11,15H,6-7,12-14H2,1H3",CBHCDHNUZWWAPP-UHFFFAOYSA-N,CN1CCCC(CN2c3ccccc3Sc3ccccc32)C1,-4.74,0.0,1,G1,310.46600000000007,4.6311000000000035,94.23400000000004,22.0,3.0,0.0,3.0,2.0,114.0,2.0,1.0,2.0,4.0,6.48,136.67420718505076,1.681833200918153,624.4896887450094
A-550,anthracene; benzene; ethylbenzene; naphthalene; tetradecane,"InChI=1S/C14H10.C14H30.C10H8.C8H10.C6H6/c1-2-6-12-10-14-8-4-3-7-13(14)9-11(12)5-1;1-3-5-7-9-11-13-14-12-10-8-6-4-2;1-2-6-10-8-4-3-7-9(10)5-1;1-2-8-6-4-3-5-7-8;1-2-4-6-5-3-1/h1-10H;3-14H2,1-2H3;1-8H;3-7H,2H2,1H3;1-6H",PBMFOKZETGSLTK-UHFFFAOYSA-N,CCCCCCCCCCCCCC.CCc1ccccc1.c1ccc2cc3ccccc3cc2c1.c1ccc2ccccc2c1.c1ccccc1,-5.0416978328,0.5972571709500003,2,G2,689.0840000000001,16.475799999999964,234.41599999999912,52.0,0.0,0.0,0.0,12.0,272.0,7.0,0.0,0.0,7.0,0.0,316.5100777773571,1.8053760748192369e-07,1628.0208283899958
B-270,chlormezanone,"InChI=1S/C11H12ClNO3S/c1-13-10(14)6-7-17(15,16)11(13)8-2-4-9(12)5-3-8/h2-5,11H,6-7H2,1H3",WEQAYVWKMWHEJO-UHFFFAOYSA-N,CN1C(=O)CCS(=O)(=O)C1c1ccc(Cl)cc1,-2.0394,0.0,1,G1,273.741,1.6155,65.36680000000003,17.0,3.0,0.0,6.0,1.0,92.0,1.0,1.0,1.0,2.0,54.45,105.10030291686616,2.4600462696750736,538.3399004379568
B-3121,fenpropimorph,"InChI=1S/C20H33NO/c1-15(12-21-13-16(2)22-17(3)14-21)11-18-7-9-19(10-8-18)20(4,5)6/h7-10,15-17H,11-14H2,1-6H3",RYAUSSKQMZRMAI-UHFFFAOYSA-N,CC(Cc1ccc(C(C)(C)C)cc1)CN1CC(C)OC(C)C1,-2.4821,0.0,1,G1,303.49000000000007,4.271900000000004,94.45900000000007,22.0,2.0,0.0,2.0,4.0,124.0,1.0,1.0,1.0,2.0,12.47,136.40814046723054,1.8748773238102472,449.5907426226766
B-3125,fenpropimorph,"InChI=1S/C20H33NO/c1-15(12-21-13-16(2)22-17(3)14-21)11-18-7-9-19(10-8-18)20(4,5)6/h7-10,15-17H,11-14H2,1-6H3/t15?,16-,17+",RYAUSSKQMZRMAI-ALOPSCKCSA-N,CC(Cc1ccc(C(C)(C)C)cc1)CN1C[C@@H](C)O[C@@H](C)C1,-4.8487,0.60585,2,G2,303.49000000000007,4.271900000000004,94.45900000000007,22.0,2.0,0.0,2.0,4.0,124.0,1.0,1.0,1.0,2.0,12.47,136.40814046723054,1.8748773238102472,449.5907426226766
C-985,"5,6-dihydro-2-sulfamoylthieno[2,3-b]thiopyran-7,7-dioxide-4-one","InChI=1S/C7H7NO5S3/c8-16(12,13)6-3-4-5(9)1-2-15(10,11)7(4)14-6/h3H,1-2H2,(H2,8,12,13)",BGNCCUHEGHNNAP-UHFFFAOYSA-N,NS(=O)(=O)c1cc2c(s1)S(=O)(=O)CCC2=O,-3.02,0.0,1,G1,281.336,-0.2443999999999995,56.6925,16.0,6.0,1.0,9.0,1.0,88.0,1.0,0.0,1.0,2.0,111.37,96.0483486508272,2.7614736361412557,666.8755074307753
C-1357,phenyl  5-fluorouracil-1-carboxylate;  1-phenyloxycarbonyl-5-fluorouracil,"InChI=1S/C11H7FN2O4/c12-8-6-14(10(16)13-9(8)15)11(17)18-7-4-2-1-3-5-7/h1-6H,(H,13,15,16)",HPLGRDDPZODNAW-UHFFFAOYSA-N,O=C(Oc1ccccc1)n1cc(F)c(=O)[nH]c1=O,-2.44,0.0,1,G1,250.185,0.7228000000000002,59.14470000000001,18.0,5.0,1.0,7.0,1.0,92.0,2.0,0.0,0.0,2.0,81.16000000000001,99.26635382101036,2.329744483069523,690.179667570346
A-5885,"[1,3-dihydro-5,6-bis[[(2-hydroxy-1-naphthyl)methylene]amino]-2H-benzimidazol-2-onato(2-)-N5,N6,O5,O6]nickel","InChI=1S/C29H20N4O3.Ni/c34-27-11-9-17-5-1-3-7-19(17)21(27)15-30-23-13-25-26(33-29(36)32-25)14-24(23)31-16-22-20-8-4-2-6-18(20)10-12-28(22)35;/h1-16,34-35H,(H2,32,33,36);/q;+2/p-2",IUJCUHZTPCIQQT-UHFFFAOYSA-L,O=c1[nH]c2cc(N=Cc3c([O-])ccc4ccccc34)c(N=Cc3c([O-])ccc4ccccc34)cc2[nH]1.[Ni+2],-7.6266942296,0.0,1,G1,529.1810000000003,4.808500000000002,140.21539999999987,37.0,5.0,2.0,8.0,4.0,182.0,6.0,0.0,0.0,6.0,119.49,220.33666495345273,2.801662043013398e-06,1768.226291337592
A-2282,"5-hydroxy-2-(3-hydroxy-4-methoxyphenyl)-7-{[(2S,3R,4S,5S,6R)-3,4,5-trihydroxy-6-({[(2R,3R,4R,5R,6S)-3,4,5-trihydroxy-6-methyloxan-2-yl]oxy}methyl)oxan-2-yl]oxy}-4H-chromen-4-one","InChI=1S/C28H32O15/c1-10-21(32)23(34)25(36)27(40-10)39-9-19-22(33)24(35)26(37)28(43-19)41-12-6-14(30)20-15(31)8-17(42-18(20)7-12)11-3-4-16(38-2)13(29)5-11/h3-8,10,19,21-30,32-37H,9H2,1-2H3/t10-,19+,21-,22+,23+,24-,25+,26+,27+,28+/m0/s1",GZSOSUNBTXMUFQ-YFAPSIMESA-N,COc1ccc(-c2cc(=O)c3c(O)cc(O[C@@H]4O[C@H](CO[C@@H]5O[C@@H](C)[C@H](O)[C@@H](O)[C@H]5O)[C@@H](O)[C@H](O)[C@H]4O)cc3o2)cc1O,-7.505541952200001,0.0,1,G1,608.5490000000003,-1.0897000000000006,143.4184,43.0,15.0,8.0,15.0,7.0,234.0,3.0,2.0,2.0,5.0,238.2,242.7906821265489,1.3618119207500037,1507.4920760905115
B-1714,dehydroabietic acid,"InChI=1S/C20H28O2/c1-13(2)14-6-8-16-15(12-14)7-9-17-19(16,3)10-5-11-20(17,4)18(21)22/h6,8,12-13,17H,5,7,9-11H2,1-4H3,(H,21,22)/t17-,19-,20-/m1/s1",NFWKVWVWBFBAOV-MISYRCLQSA-N,CC(C)c1ccc2c(c1)CC[C@H]1[C@](C)(C(=O)O)CCC[C@]21C,-4.6582,0.0,1,G1,300.44199999999995,4.904900000000004,89.28780000000006,22.0,1.0,1.0,2.0,2.0,120.0,1.0,1.0,2.0,3.0,37.3,133.4846862662308,2.076113052634317,603.7248493905564
A-1349,3-pentyloxan-4-yl acetate,"InChI=1S/C12H22O3/c1-3-4-5-6-11-9-14-8-7-12(11)15-10(2)13/h11-12H,3-9H2,1-2H3",VSRVCSJJKWDZSH-UHFFFAOYSA-N,CCCCCC1COCCC1OC(C)=O,-2.9987958882999997,0.0,1,G1,214.30499999999995,2.5349000000000004,58.62200000000005,15.0,3.0,0.0,3.0,5.0,88.0,0.0,1.0,1.0,1.0,35.53,92.13639569172052,2.3181849864239865,191.3062531800184
A-2918,4-methyl-2-(2-methylpropyl)oxan-4-ol,"InChI=1S/C10H20O2/c1-8(2)6-9-7-10(3,11)4-5-12-9/h8-9,11H,4-7H2,1-3H3",YVSNOTITPICPTB-UHFFFAOYSA-N,CC(C)CC1CC(C)(O)CCO1,2.1376816201,0.0,1,G1,172.26799999999994,1.9625,49.052800000000026,12.0,2.0,1.0,2.0,2.0,72.0,0.0,1.0,1.0,1.0,29.46,74.92567788557268,2.3602381863059883,140.7740056622918
A-3434,hexyl D-glucoside,"InChI=1S/C12H24O6/c1-2-3-4-5-6-17-12-11(16)10(15)9(14)8(7-13)18-12/h8-16H,2-7H2,1H3/t8-,9-,10+,11-,12?/m1/s1",JVAZJLFFSJARQM-OZRWLHRGSA-N,CCCCCCOC1O[C@H](CO)[C@@H](O)[C@H](O)[C@H]1O,-0.6586987459,0.0,1,G1,264.318,-0.6168000000000002,63.86120000000006,18.0,6.0,4.0,6.0,7.0,108.0,0.0,1.0,1.0,1.0,99.38,107.1518086004608,2.3456494022350434,222.61317499160344
A-3444,xylose,"InChI=1S/C5H10O5/c6-2-1-10-5(9)4(8)3(2)7/h2-9H,1H2",SRBFZHDQGSBBOR-UHFFFAOYSA-N,OC1COC(O)C(O)C1O,0.5778808511,0.1407352666381503,5,G5,150.13,-2.5823000000000005,29.979199999999988,10.0,5.0,4.0,5.0,0.0,60.0,0.0,1.0,1.0,1.0,90.15,57.48366857017767,2.515835979311492,102.6059378176129
A-4480,Alpha-Methylglucoside,"InChI=1S/C7H14O6/c1-12-7-6(11)5(10)4(9)3(2-8)13-7/h3-11H,2H2,1H3",HOVAGTYPODGVJG-UHFFFAOYSA-N,COC1OC(CO)C(O)C(O)C1O,0.7452125491,0.22310627455,2,G3,194.183,-2.5673,40.77620000000001,13.0,6.0,4.0,6.0,2.0,78.0,0.0,1.0,1.0,1.0,99.38,75.32709802847776,2.659390479692273,143.0617569290273
A-4623,"[(2R,3R,4S,5R,6R)-3,4,5,6-tetrakis(acetyloxy)oxan-2-yl]methyl acetate","InChI=1S/C16H22O11/c1-7(17)22-6-12-13(23-8(2)18)14(24-9(3)19)15(25-10(4)20)16(27-12)26-11(5)21/h12-16H,6H2,1-5H3",LPTITAGPBXDDGR-UHFFFAOYSA-N,CC(=O)OCC1OC(OC(C)=O)C(OC(C)=O)C(OC(C)=O)C1OC(C)=O,-2.4153529113,0.11732354435,2,G3,390.3410000000002,-0.3673999999999986,83.72200000000004,27.0,11.0,0.0,11.0,6.0,152.0,0.0,1.0,1.0,1.0,140.73000000000002,154.6964334675096,3.285482321670223,599.1739454400771
A-4714,4-methyl-2-(2-methylprop-1-en-1-yl)oxane,"InChI=1S/C10H18O/c1-8(2)6-10-7-9(3)4-5-11-10/h6,9-10H,4-5,7H2,1-3H3",CZCBTSFUTPZVKJ-UHFFFAOYSA-N,CC(C)=CC1CC(C)CCO1,-2.2244457918,0.0,1,G1,154.253,2.7677000000000014,47.569000000000024,11.0,1.0,0.0,1.0,1.0,64.0,0.0,1.0,1.0,1.0,9.23,69.44184110119241,2.4000420004736065,144.9517669080599
A-4808,"2,2,6-trimethyl-6-vinyltetrahydro-2H-pyran","InChI=1S/C10H18O/c1-5-10(4)8-6-7-9(2,3)11-10/h5H,1,6-8H2,2-4H3",NETOHYFTCONTDT-UHFFFAOYSA-N,C=CC1(C)CCCC(C)(C)O1,-2.5359872782,0.0,1,G1,154.253,2.9102000000000015,47.617000000000026,11.0,1.0,0.0,1.0,1.0,64.0,0.0,1.0,1.0,1.0,9.23,69.44184110119241,2.6614838488310784,160.25571236699292
A-4921,2-isobutyl-4-methyltetrahydro-2H-pyran,"InChI=1S/C10H20O/c1-8(2)6-10-7-9(3)4-5-11-10/h8-10H,4-7H2,1-3H3",LETLQGKRPMMKKC-UHFFFAOYSA-N,CC(C)CC1CC(C)CCO1,-3.0799294806999997,0.0,1,G1,156.26899999999998,2.8476000000000017,47.593000000000025,11.0,1.0,0.0,1.0,2.0,66.0,0.0,1.0,1.0,1.0,9.23,70.13144413337666,2.225626873385675,107.44040467374955
B-88,a-glucose-1-phosphate,"InChI=1S/C6H13O9P/c7-1-2-3(8)4(9)5(10)6(14-2)15-16(11,12)13/h2-10H,1H2,(H2,11,12,13)",HXXFSFRBOHSIMQ-UHFFFAOYSA-N,O=P(O)(O)OC1OC(CO)C(O)C(O)C1O,0.5848,0.0,1,G1,260.13500000000005,-3.1043999999999996,46.896300000000025,16.0,7.0,6.0,10.0,3.0,96.0,0.0,1.0,1.0,1.0,156.91,90.10023409294828,2.7478463984132655,275.17277561791803
B-444,tetrahydropyran-2-methanol,"InChI=1S/C6H12O2/c7-5-6-3-1-2-4-8-6/h6-7H,1-5H2",ROTONRWJLXYJBD-UHFFFAOYSA-N,OCC1CCCCO1,0.9349,0.0,1,G1,116.16,0.5478000000000001,30.676799999999982,8.0,2.0,1.0,2.0,1.0,48.0,0.0,1.0,1.0,1.0,29.46,49.465909427986254,2.1250162554146717,57.548875021634686
B-1004,alpha-d-glucose,"InChI=1S/C6H12O6/c7-1-2-3(8)4(9)5(10)6(11)12-2/h2-11H,1H2/t2-,3-,4+,5-,6+/m1/s1",WQZGKKKJIJFFOK-DVKNGEFBSA-N,OC[C@H]1O[C@H](O)[C@H](O)[C@@H](O)[C@@H]1O,0.4433,0.0,1,G1,180.156,-3.2214000000000005,35.986,12.0,6.0,5.0,6.0,1.0,72.0,0.0,1.0,1.0,1.0,110.38,68.64284443677029,2.6344089870615974,146.2188491003481
B-1241,lactitol,"InChI=1S/C12H24O11/c13-1-4(16)7(18)11(5(17)2-14)23-12-10(21)9(20)8(19)6(3-15)22-12/h4-21H,1-3H2",VQHSOMBJVWLPSR-UHFFFAOYSA-N,OCC(O)C(O)C(OC1OC(CO)C(O)C(O)C1O)C(O)CO,0.2872,0.0,1,G1,344.31300000000005,-5.761199999999992,70.83220000000004,23.0,11.0,9.0,11.0,8.0,138.0,0.0,1.0,1.0,1.0,200.52999999999997,131.1229773614409,2.8851034466565175,340.9686271756471
B-2540,"2h-pyran, tetrahydro-2-methoxy-6-methyl-","InChI=1S/C7H14O2/c1-6-4-3-5-7(8-2)9-6/h6-7H,3-5H2,1-2H3",FNEUIJOQHOUXIE-UHFFFAOYSA-N,COC1CCCC(C)O1,-0.5921,0.0,1,G1,130.187,1.5479,35.19499999999999,9.0,2.0,0.0,2.0,1.0,54.0,0.0,1.0,1.0,1.0,18.46,56.15016301969372,2.23165161946076,82.98533616859814
B-3037,ranimustine,"InChI=1S/C10H18ClN3O7/c1-20-9-8(17)7(16)6(15)5(21-9)4-12-10(18)14(13-19)3-2-11/h5-9,15-17H,2-4H2,1H3,(H,12,18)",AHHFEZNOXOZZQA-UHFFFAOYSA-N,COC1OC(CNC(=O)N(CCCl)N=O)C(O)C(O)C1O,-1.5613,0.8241499999999999,2,G2,327.721,-1.6277999999999992,70.3101,21.0,8.0,4.0,11.0,6.0,122.0,0.0,1.0,1.0,1.0,140.92000000000002,125.06704280467387,2.5680485865782092,359.54302485057156
B-4054,tetrahydropyran,InChI=1S/C5H10O/c1-2-4-6-5-3-1/h1-5H2,DHXVGJBLRPWPCS-UHFFFAOYSA-N,C1CCOCC1,-0.031,0.0,1,G1,86.134,1.1869,24.66999999999999,6.0,1.0,0.0,1.0,0.0,36.0,0.0,1.0,1.0,1.0,9.23,38.30673356139363,2.0,19.40990953421706
C-30,d-glucose;  dextrose,"InChI=1S/C6H12O6/c7-1-2-3(8)4(9)5(10)6(11)12-2/h2-11H,1H2",WQZGKKKJIJFFOK-UHFFFAOYSA-N,OCC1OC(O)C(O)C(O)C1O,0.74,0.1015253262737924,4,G5,180.156,-3.2214000000000005,35.986,12.0,6.0,5.0,6.0,1.0,72.0,0.0,1.0,1.0,1.0,110.38,68.64284443677029,2.6344089870615974,146.2188491003481
E-400,fructose,"InChI=1S/C6H12O6/c7-2-6(11)5(10)4(9)3(8)1-12-6/h3-5,7-11H,1-2H2",LKDRXBCSQODPBY-UHFFFAOYSA-N,OCC1(O)OCC(O)C(O)C1O,0.64,0.325,2,G3,180.156,-3.2198,36.007999999999996,12.0,6.0,5.0,6.0,1.0,72.0,0.0,1.0,1.0,1.0,110.38,68.64284443677028,2.705837489211811,162.11730005192322
F-879,3-O-Octanoylhexopyranose,"InChI=1S/C14H26O7/c1-2-3-4-5-6-7-10(16)21-13-11(17)9(8-15)20-14(19)12(13)18/h9,11-15,17-19H,2-8H2,1H3",XXOQQAWGIDQJOO-UHFFFAOYSA-N,CCCCCCCC(=O)OC1C(O)C(O)OC(CO)C1O,-2.63,0.0,1,G1,306.3550000000001,-0.3100000000000003,73.23520000000003,21.0,7.0,4.0,7.0,8.0,124.0,0.0,1.0,1.0,1.0,116.45000000000002,124.04321492929782,2.4075386477634826,309.6976482516554
F-1002,6-O-(Octylcarbamoyl)hexopyranose,"InChI=1S/C15H29NO7/c1-2-3-4-5-6-7-8-16-15(21)22-9-10-11(17)12(18)13(19)14(20)23-10/h10-14,17-20H,2-9H2,1H3,(H,16,21)",YJWKUPNGVMEPLO-UHFFFAOYSA-N,CCCCCCCCNC(=O)OCC1OC(O)C(O)C(O)C1O,-2.35,0.0,1,G1,335.397,-0.1270000000000002,81.62690000000003,23.0,7.0,5.0,8.0,9.0,136.0,0.0,1.0,1.0,1.0,128.48000000000002,135.95801922730246,2.131426499285343,341.78708160078025
F-1003,"(3,4,5,6-tetrahydroxyoxan-2-yl)methyl-n-nonylcarbamate","InChI=1S/C16H31NO7/c1-2-3-4-5-6-7-8-9-17-16(22)23-10-11-12(18)13(19)14(20)15(21)24-11/h11-15,18-21H,2-10H2,1H3,(H,17,22)",IISXZSRCIXGFGN-UHFFFAOYSA-N,CCCCCCCCCNC(=O)OCC1OC(O)C(O)C(O)C1O,-2.96,0.0,1,G1,349.42400000000004,0.2630999999999993,86.24390000000004,24.0,7.0,5.0,8.0,10.0,142.0,0.0,1.0,1.0,1.0,128.48000000000002,142.32296134169906,2.0895668285612423,355.3176274405624
F-1004,6-O-(Decylcarbamoyl)hexopyranose,"InChI=1S/C17H33NO7/c1-2-3-4-5-6-7-8-9-10-18-17(23)24-11-12-13(19)14(20)15(21)16(22)25-12/h12-16,19-22H,2-11H2,1H3,(H,18,23)",WPJAMBGJTQMVNM-UHFFFAOYSA-N,CCCCCCCCCCNC(=O)OCC1OC(O)C(O)C(O)C1O,-3.56,0.0,1,G1,363.451,0.6531999999999996,90.86090000000004,25.0,7.0,5.0,8.0,11.0,148.0,0.0,1.0,1.0,1.0,128.48000000000002,148.68790345609568,2.0514169645913114,368.90552519373233
F-1093,"6-(hydroxymethyl)-4-octylsulfanyloxane-2,3,5-triol","InChI=1S/C14H28O5S/c1-2-3-4-5-6-7-8-20-13-11(16)10(9-15)19-14(18)12(13)17/h10-18H,2-9H2,1H3",URYSHBMTTTXBAR-UHFFFAOYSA-N,CCCCCCCCSC1C(O)C(O)OC(CO)C1O,-2.91,0.0,1,G1,308.44000000000005,0.8799999999999999,79.60120000000003,20.0,6.0,4.0,6.0,9.0,120.0,0.0,1.0,1.0,1.0,90.15,124.8912576251124,2.2539949158914965,253.71876200324016
A-2293,"3,4,9,10-Perylenetetracarboxylic diimide","InChI=1S/C24H10N2O4/c27-21-13-5-1-9-10-2-6-15-20-16(24(30)26-23(15)29)8-4-12(18(10)20)11-3-7-14(22(28)25-21)19(13)17(9)11/h1-8H,(H,25,27,28)(H,26,29,30)",KJOLVZJFMDVPGB-UHFFFAOYSA-N,O=C1NC(=O)c2ccc3c4ccc5c6c(ccc(c7ccc1c2c73)c64)C(=O)NC5=O,-7.591458633999999,0.0,1,G1,390.35400000000016,3.0162000000000013,118.81740000000002,30.0,4.0,2.0,6.0,0.0,140.0,7.0,0.0,0.0,7.0,99.86,164.5648244322474,1.9470579005489248,1796.555362060052
A-5998,C.i. Pigment Red 179,"InChI=1S/C26H14N2O4/c1-27-23(29)15-7-3-11-13-5-9-17-22-18(26(32)28(2)25(17)31)10-6-14(20(13)22)12-4-8-16(24(27)30)21(15)19(11)12/h3-10H,1-2H3",PJQYNUFEEZFYIS-UHFFFAOYSA-N,CN1C(=O)c2ccc3c4ccc5c6c(ccc(c7ccc(c2c37)C1=O)c64)C(=O)N(C)C5=O,-7.7185099927,0.2355099082882299,3,G5,418.4080000000002,3.0370000000000017,128.05800000000002,32.0,6.0,0.0,6.0,0.0,152.0,7.0,0.0,0.0,7.0,78.14,177.7146516342313,1.9131526012910405,1886.3470521899749
B-2069,"naphtho[2,1-b]furan-2(1)h-one","InChI=1S/C12H8O2/c13-12-7-10-9-4-2-1-3-8(9)5-6-11(10)14-12/h1-6H,7H2",KVLORZFYGDNPIQ-UHFFFAOYSA-N,O=C1Cc2c(ccc3ccccc23)O1,-2.7078,0.0,1,G1,184.194,2.3013000000000003,53.28700000000002,14.0,2.0,0.0,2.0,0.0,68.0,2.0,0.0,1.0,3.0,26.3,81.1121880560468,2.3857353309418894,528.8328093513568
B-3403,pyrimidifen,"InChI=1S/C20H28ClN3O2/c1-5-17-19(21)20(24-13-23-17)22-10-12-26-18-8-7-16(9-11-25-6-2)14(3)15(18)4/h7-8,13H,5-6,9-12H2,1-4H3,(H,22,23,24)",ITKAIUGKVKDENI-UHFFFAOYSA-N,CCOCCc1ccc(OCCNc2ncnc(CC)c2Cl)c(C)c1C,-5.2409,0.0,1,G1,377.91600000000017,4.379140000000004,106.51770000000006,26.0,5.0,1.0,6.0,10.0,142.0,2.0,0.0,0.0,2.0,56.27,160.65743330092363,1.8874505779379656,722.4427486211525
B-550,"2(5h)-furanone, 5-methylene-","InChI=1S/C5H4O2/c1-4-2-3-5(6)7-4/h2-3H,1H2",RNYZJZKPGHQTJR-UHFFFAOYSA-N,C=C1C=CC(=O)O1,-0.9827,0.0,1,G1,96.08499999999998,0.6131,24.371999999999993,7.0,2.0,0.0,2.0,0.0,36.0,0.0,0.0,1.0,1.0,26.3,41.089049597068886,2.759543614305127,128.15914403188967
A-4629,3-methyl-2-[(2E)-pent-2-en-1-yl]cyclopent-2-en-1-one,"InChI=1S/C11H16O/c1-3-4-5-6-10-9(2)7-8-11(10)12/h4-5H,3,6-8H2,1-2H3/b5-4-",XMLSXPIVAXONDL-PLNGDYQASA-N,CC/C=C\CC1=C(C)CCC1=O,-2.0452383746,0.0,1,G1,164.248,3.022100000000002,50.98900000000003,12.0,1.0,0.0,1.0,3.0,66.0,0.0,0.0,1.0,1.0,17.07,74.16515705394167,2.5542137470748076,233.38866754698049
F-831,3-hydroxy-5-(5-oxo-1-cyclopentenyl)pentanoic acid,"InChI=1S/C10H14O4/c11-8(6-10(13)14)5-4-7-2-1-3-9(7)12/h2,8,11H,1,3-6H2,(H,13,14)",YKZYNOWDVPDSMO-UHFFFAOYSA-N,O=C(O)CC(O)CCC1=CCCC1=O,-0.4,0.0,1,G1,198.21799999999996,0.8915,49.81760000000003,14.0,3.0,2.0,4.0,5.0,78.0,0.0,0.0,1.0,1.0,74.6,82.2398075761651,2.2602975908185927,267.2955635951586
A-199,Doramectin,"InChI=1S/C50H74O14/c1-27-13-12-16-34-26-57-47-42(51)30(4)21-37(50(34,47)54)48(53)60-36-22-35(63-49(25-36)20-19-29(3)45(64-49)33-14-10-9-11-15-33)18-17-28(2)44(27)61-41-24-39(56-8)46(32(6)59-41)62-40-23-38(55-7)43(52)31(5)58-40/h12-13,16-17,19-21,27,29,31-33,35-47,51-52,54H,9-11,14-15,18,22-26H2,1-8H3/b13-12+,28-17+,34-16+/t27-,29-,31-,32-,35+,36-,37-,38-,39-,40-,41-,42+,43-,44?,45-,46?,47+,49+,50+/m0/s1",QLFZZSKTJWDQOS-NJPOTTGESA-N,CO[C@H]1C[C@H](OC2/C(C)=C/C[C@@H]3C[C@@H](C[C@]4(C=C[C@H](C)[C@@H](C5CCCCC5)O4)O3)OC(=O)[C@@H]3C=C(C)[C@@H](O)[C@H]4OC/C(=C\C=C\[C@@H]2C)[C@]43O)O[C@@H](C)C1O[C@H]1C[C@H](OC)[C@@H](O)[C@H](C)O1,-7.5558815137,0.0,1,G1,899.1279999999997,5.911600000000007,234.42539999999903,64.0,14.0,3.0,14.0,7.0,358.0,0.0,5.0,8.0,8.0,170.05999999999997,378.80642589580856,1.0810089105038068,1787.630132042587
C-1065,flufenoxuron;  cascade,"InChI=1S/C21H11ClF6N2O3/c22-12-8-10(21(26,27)28)4-7-17(12)33-11-5-6-16(15(25)9-11)29-20(32)30-19(31)18-13(23)2-1-3-14(18)24/h1-9H,(H2,29,30,31,32)",RYLHNOVXKPXDIP-UHFFFAOYSA-N,O=C(NC(=O)c1c(F)cccc1F)Nc1ccc(Oc2ccc(C(F)(F)F)cc2Cl)cc1F,-8.09,0.2086500000000004,2,G3,488.7710000000001,6.530300000000003,105.7709,33.0,3.0,2.0,12.0,4.0,172.0,3.0,0.0,0.0,3.0,67.43,186.47321031606447,1.6833988950565026,1212.8572448093828