ID,Name,InChI,InChIKey,SMILES,Solubility,SD,Occurrences,Group,MolWt,MolLogP,MolMR,HeavyAtomCount,NumHAcceptors,NumHDonors,NumHeteroatoms,NumRotatableBonds,NumValenceElectrons,NumAromaticRings,NumSaturatedRings,NumAliphaticRings,RingCount,TPSA,LabuteASA,BalabanJ,BertzCT
A-3018,ethyl N-ethyl-N-phenylcarbamate,"InChI=1S/C11H15NO2/c1-3-12(11(13)14-4-2)10-8-6-5-7-9-10/h5-9H,3-4H2,1-2H3",XEFYPTRGVWLMHB-UHFFFAOYSA-N,CCOC(=O)N(CC)c1ccccc1,0.8673994761,0.0,1,G1,193.24600000000004,2.6694000000000013,56.48400000000004,14.0,2.0,0.0,3.0,3.0,76.0,1.0,0.0,0.0,1.0,29.54,84.29101469123403,2.7684603093461297,284.5988225339022
A-3025,3-chloro-2-methylaniline,"InChI=1S/C7H8ClN/c1-5-6(8)3-2-4-7(5)9/h2-4H,9H2,1H3",ZUVPLKVDZNDZCM-UHFFFAOYSA-N,Cc1c(N)cccc1Cl,-2.1510663204,0.3266062569,2,G3,141.60099999999997,2.23062,40.60140000000001,9.0,1.0,1.0,2.0,0.0,48.0,1.0,0.0,0.0,1.0,26.02,59.43950215778796,3.2478347337367035,199.90617759993407
A-3027,2-phenylethyl acetate,"InChI=1S/C10H12O2/c1-9(11)12-8-7-10-5-3-2-4-6-10/h2-6H,7-8H2,1H3",MDHYEMXUFSJLGV-UHFFFAOYSA-N,CC(=O)OCCc1ccccc1,-2.2317574452,0.0,1,G1,164.204,1.7922,46.77900000000003,12.0,2.0,0.0,2.0,3.0,64.0,1.0,0.0,0.0,1.0,26.3,72.16623890663405,2.290572056240154,241.27530899395387
A-3047,"1,2-dichlorobenzene",InChI=1S/C6H4Cl2/c7-5-3-1-2-4-6(5)8/h1-4H,RFFLAFLAYFXFSW-UHFFFAOYSA-N,Clc1ccccc1Cl,-3.0533857998,0.0797357612202693,8,G5,147.00399999999996,2.9934000000000003,36.46200000000001,8.0,0.0,0.0,2.0,0.0,42.0,1.0,0.0,0.0,1.0,0.0,58.037935573260306,3.134861511345448,162.63833891467198
A-3049,(E)-anethole,"InChI=1S/C10H12O/c1-3-4-9-5-7-10(11-2)8-6-9/h3-8H,1-2H3/b4-3+",RUVINXPYWBROJD-ONEGZZNKSA-N,C/C=C/c1ccc(OC)cc1,-3.1255398769,0.0,1,G1,148.20499999999998,2.728300000000001,47.70200000000003,11.0,1.0,0.0,1.0,2.0,58.0,1.0,0.0,0.0,1.0,9.23,67.31511377440602,2.8240417350315044,233.55461928814677
A-3078,2-hydroxy-5-sulfobenzoic acid,"InChI=1S/C7H6O6S/c8-6-2-1-4(14(11,12)13)3-5(6)7(9)10/h1-3,8H,(H,9,10)(H,11,12,13)",YCPXWRQRBFJBPZ-UHFFFAOYSA-N,O=C(O)c1cc(S(=O)(=O)O)ccc1O,0.6554902722,0.0,1,G1,218.186,0.3371,44.88070000000001,14.0,4.0,3.0,7.0,2.0,76.0,1.0,0.0,0.0,1.0,111.9,79.17497084836997,3.416533376164286,474.953429000482
A-3082,"4-(2-hydroxyethoxy)benzene-1,3-diaminium sulfate","InChI=1S/C8H12N2O2/c9-6-1-2-8(7(10)5-6)12-4-3-11/h1-2,5,11H,3-4,9-10H2",WCPGNFONICRLCL-UHFFFAOYSA-N,Nc1ccc(OCCO)c(N)c1,-0.2337041755,0.0,1,G1,168.196,0.2220999999999999,47.84760000000001,12.0,4.0,3.0,4.0,3.0,66.0,1.0,0.0,0.0,1.0,81.5,70.7488477240185,2.722334696822482,263.23481493850056
A-3086,tetraethylazanium benzoate,"InChI=1S/C8H20N.C7H6O2/c1-5-9(6-2,7-3)8-4;8-7(9)6-4-2-1-3-5-6/h5-8H2,1-4H3;1-5H,(H,8,9)/q+1;/p-1",CIFIGXMZHITUAZ-UHFFFAOYSA-M,CC[N+](CC)(CC)CC.O=C([O-])c1ccccc1,0.583312842,0.0,1,G1,251.37,1.9328999999999996,73.19690000000006,18.0,2.0,0.0,3.0,5.0,102.0,1.0,0.0,0.0,1.0,40.129999999999995,110.64727431163416,3.211111055441359e-07,314.0968799935334
A-3123,4-methylaniline,"InChI=1S/C7H9N/c1-6-2-4-7(8)5-3-6/h2-5H,8H2,1H3",RZXMPPFPUUCRFN-UHFFFAOYSA-N,Cc1ccc(N)cc1,-1.0477452605,0.4262053018910804,4,G5,107.156,1.5772199999999998,35.5914,8.0,1.0,1.0,1.0,0.0,42.0,1.0,0.0,0.0,1.0,26.02,49.13623593090628,3.0324555320336755,143.24662946459569
A-3128,2-ethoxyphenol,"InChI=1S/C8H10O2/c1-2-10-8-6-4-3-5-7(8)9/h3-6,9H,2H2,1H3",MOEFFSWKSMRFRQ-UHFFFAOYSA-N,CCOc1ccccc1O,-1.1714515037,0.0,1,G1,138.16599999999997,1.7908999999999995,39.27580000000001,10.0,2.0,1.0,2.0,2.0,54.0,1.0,0.0,0.0,1.0,29.46,60.06906632999306,2.811180917188401,208.16749419417292
A-3132,4-hydroxy-3-methoxybenzaldehyde,"InChI=1S/C8H8O3/c1-11-8-4-6(5-9)2-3-7(8)10/h2-5,10H,1H3",MWOOGOJBHIARFG-UHFFFAOYSA-N,COc1cc(C=O)ccc1O,-1.2280265929,0.04356329645,2,G3,152.14899999999997,1.2132999999999998,40.046300000000016,11.0,3.0,1.0,3.0,2.0,58.0,1.0,0.0,0.0,1.0,46.53,64.23058843003683,3.116164133858052,268.03972257956417
A-3165,"potassium hydrogen benzene-1,2-dicarboxylate","InChI=1S/C8H6O4.K/c9-7(10)5-3-1-2-4-6(5)8(11)12;/h1-4H,(H,9,10)(H,11,12);/q;+1/p-1",IWZKICVEHNUQTL-UHFFFAOYSA-M,O=C([O-])c1ccccc1C(=O)O.[K+],-0.3910244327,0.54046095385,2,G2,204.222,-3.2476999999999983,37.73180000000001,13.0,3.0,1.0,5.0,2.0,62.0,1.0,0.0,0.0,1.0,77.43,116.99536374813236,1.439999672400077e-06,301.67084098634456
A-3172,sodium 4-methylbenzene-1-sulfonate,"InChI=1S/C7H8O3S.Na/c1-6-2-4-7(5-3-6)11(8,9)10;/h2-5H,1H3,(H,8,9,10);/q;+1/p-1",KVCGISUBCHHTDD-UHFFFAOYSA-M,Cc1ccc(S(=O)(=O)[O-])cc1.[Na+],0.6245331513,0.0,1,G1,194.18699999999995,-2.096879999999998,39.14220000000002,12.0,3.0,0.0,5.0,1.0,60.0,1.0,0.0,0.0,1.0,57.2,93.83838086664612,1.2099997657000466e-06,341.41916724713917
A-3173,"1-N-(2-hydroxyethyl)-4-methoxybenzene-1,3-bis(aminium) sulfate","InChI=1S/C9H14N2O2.H2O4S/c1-13-9-3-2-7(6-8(9)10)11-4-5-12;1-5(2,3)4/h2-3,6,11-12H,4-5,10H2,1H3;(H2,1,2,3,4)",GWHLYFOWAINYAH-UHFFFAOYSA-N,COc1ccc([NH2+]CCO)cc1[NH3+].O=S(=O)([O-])[O-],-0.5343422948,0.0,1,G1,280.3020000000001,-2.5821999999999985,59.55490000000002,18.0,6.0,3.0,9.0,4.0,104.0,1.0,0.0,0.0,1.0,153.97,104.9614661168343,4.943076631850514e-07,454.1257066413985
A-3181,3-oxo-N-phenylbutanamide,"InChI=1S/C10H11NO2/c1-8(12)7-10(13)11-9-5-3-2-4-6-9/h2-6H,7H2,1H3,(H,11,13)",DYRDKSSFIWVSNM-UHFFFAOYSA-N,CC(=O)CC(=O)Nc1ccccc1,-1.2990810635,0.0,1,G1,177.203,1.6041999999999998,50.36970000000002,13.0,2.0,1.0,3.0,3.0,68.0,1.0,0.0,0.0,1.0,46.17,76.76407796077896,2.5044549868496246,305.96060133940625
A-3201,"2,6-dimethylaniline","InChI=1S/C8H11N/c1-6-4-3-5-7(2)8(6)9/h3-5H,9H2,1-2H3",UFFBMTHBGFGIHF-UHFFFAOYSA-N,Cc1cccc(C)c1N,-1.167514488,0.0990080702999999,2,G3,121.183,1.88564,40.32840000000001,9.0,1.0,1.0,1.0,0.0,48.0,1.0,0.0,0.0,1.0,26.02,55.50117804530289,3.2478347337367026,195.55766205433733
A-3205,4-aminobenzamide,"InChI=1S/C7H8N2O/c8-6-3-1-5(2-4-6)7(9)10/h1-4H,8H2,(H2,9,10)",QIKYZXDTTPVVAC-UHFFFAOYSA-N,NC(=O)c1ccc(N)cc1,-1.2255453859,0.0,1,G1,136.154,0.3677,39.3723,10.0,2.0,2.0,3.0,1.0,52.0,1.0,0.0,0.0,1.0,69.11,58.63764872796276,3.003400684579818,240.2879489264805
A-3209,benzyldimethylamine,"InChI=1S/C9H13N/c1-10(2)8-9-6-4-3-5-7-9/h3-7H,8H2,1-2H3",XXBDWLFCJWSEKW-UHFFFAOYSA-N,CN(C)Cc1ccccc1,-1.2279188258,0.0880594128999999,2,G3,135.20999999999998,1.7482,43.83300000000003,10.0,1.0,0.0,1.0,2.0,54.0,1.0,0.0,0.0,1.0,3.24,62.28606313289016,2.5872871851548136,179.17957141667625
A-3215,potassium 4-(acetoacetylamino)benzenesulfonate,"InChI=1S/C10H11NO5S.K/c1-7(12)6-10(13)11-8-2-4-9(5-3-8)17(14,15)16;/h2-5H,6H2,1H3,(H,11,13)(H,14,15,16);/q;+1/p-1",FNLKZYBTJKUMQM-UHFFFAOYSA-M,CC(=O)CC(=O)Nc1ccc(S(=O)(=O)[O-])cc1.[K+],0.4217473345,0.0,1,G1,295.3570000000001,-2.4876999999999985,58.33290000000002,18.0,5.0,1.0,8.0,4.0,92.0,1.0,0.0,0.0,1.0,103.37,147.31527866618225,2.8899984300508875e-06,537.8913960465258
A-3219,"2-methylbenzene-1,4-diol","InChI=1S/C7H8O2/c1-5-4-6(8)2-3-7(5)9/h2-4,8-9H,1H3",CNHDIAIOKMXOLK-UHFFFAOYSA-N,Cc1cc(O)ccc1O,-0.2074175173999999,0.0,1,G1,124.13899999999995,1.4062199999999998,34.5086,9.0,2.0,2.0,2.0,0.0,48.0,1.0,0.0,0.0,1.0,40.46,53.3848127382856,3.1716780304409156,218.15617759993404
A-3232,"N-methylmethanaminium (2,4-dichlorophenoxy)acetate","InChI=1S/C8H6Cl2O3.C2H7N/c9-5-1-2-7(6(10)3-5)13-4-8(11)12;1-3-2/h1-3H,4H2,(H,11,12);3H,1-2H3",IUQJDHJVPLLKFL-UHFFFAOYSA-N,CNC.O=C(O)COc1ccc(Cl)cc1Cl,0.4499772209,0.0,1,G1,266.124,2.2924000000000007,64.57650000000002,16.0,3.0,2.0,6.0,3.0,90.0,1.0,0.0,0.0,1.0,58.56,104.12269844973063,6.730768532686632e-07,344.83606869730977
A-3270,"benzene-1,4-diol","InChI=1S/C6H6O2/c7-5-1-2-6(8)4-3-5/h1-4,7-8H",QIGBRXMKCJKVMJ-UHFFFAOYSA-N,Oc1ccc(O)cc1,-0.1967366109,0.1297366887615641,6,G5,110.11199999999998,1.0978,29.771599999999996,8.0,2.0,2.0,2.0,0.0,42.0,1.0,0.0,0.0,1.0,40.46,47.01987062388899,3.0324555320336755,145.38833891467198
A-3294,1-[(2-hydroxypropyl)(4-methylphenyl)amino]propan-2-ol,"InChI=1S/C13H21NO2/c1-10-4-6-13(7-5-10)14(8-11(2)15)9-12(3)16/h4-7,11-12,15-16H,8-9H2,1-3H3",JFZVSHAMRZPOPA-UHFFFAOYSA-N,Cc1ccc(N(CC(C)O)CC(C)O)cc1,-1.5038218002,0.0,1,G1,223.316,1.56302,66.75360000000005,16.0,3.0,2.0,3.0,5.0,90.0,1.0,0.0,0.0,1.0,43.7,97.3342990948686,2.7811127149176116,296.21356211444805
A-3313,2-methyl-5-nitrobenzene-1-sulfonic acid,"InChI=1S/C7H7NO5S/c1-5-2-3-6(8(9)10)4-7(5)14(11,12)13/h2-4H,1H3,(H,11,12,13)",ZDTXQHVBLWYPHS-UHFFFAOYSA-N,Cc1ccc([N+](=O)[O-])cc1S(=O)(=O)O,0.4924399529,0.0,1,G1,217.202,1.1499200000000005,47.64800000000001,14.0,4.0,1.0,7.0,2.0,76.0,1.0,0.0,0.0,1.0,97.51,80.07795696643399,3.4429387680106793,478.8535635303721
A-3316,(2R)-2-(2-chlorophenyl)-2-hydroxyacetic acid,"InChI=1S/C8H7ClO3/c9-6-4-2-1-3-5(6)7(10)8(11)12/h1-4,7,10H,(H,11,12)/t7-/m1/s1",RWOLDZZTBNYTMS-SSDOTTSWSA-N,O=C(O)[C@H](O)c1ccccc1Cl,-0.4390279004999999,0.0,1,G1,186.594,1.458,44.04760000000002,12.0,2.0,2.0,4.0,2.0,64.0,1.0,0.0,0.0,1.0,57.53,74.21454317960763,3.0227910918592995,298.10937643443293
A-3354,2-phenylethan-1-amine,"InChI=1S/C8H11N/c9-7-6-8-4-2-1-3-5-8/h1-5H,6-7,9H2",BHHGXPLMPWCGHP-UHFFFAOYSA-N,NCCc1ccccc1,-0.2823811698,0.0,1,G1,121.18299999999996,1.1878,39.200400000000016,9.0,1.0,1.0,1.0,2.0,48.0,1.0,0.0,0.0,1.0,26.02,55.50117804530289,2.61489994009295,157.4784207656209
A-3397,benzaldehyde,InChI=1S/C7H6O/c8-6-7-4-2-1-3-5-7/h1-6H,HUMNYLRZRPPJDN-UHFFFAOYSA-N,O=Cc1ccccc1,-1.2095723109,0.1662630255952807,3,G5,106.12399999999997,1.4991,31.829499999999992,8.0,1.0,0.0,1.0,1.0,40.0,1.0,0.0,0.0,1.0,17.07,47.95786733393734,2.9910469146846212,167.00151696675914
A-3399,2-(methylamino)-1-phenylpropan-1-ol,"InChI=1S/C10H15NO/c1-8(11-2)10(12)9-6-4-3-5-7-9/h3-8,10-12H,1-2H3/t8-,10+/m0/s1",KWGRBVOPPLSCSI-WCBMZHEXSA-N,CN[C@@H](C)[C@@H](O)c1ccccc1,-1.4051913165,0.0,1,G1,165.236,1.3279,49.92350000000003,12.0,2.0,2.0,2.0,3.0,66.0,1.0,0.0,0.0,1.0,32.26,73.23526751288745,2.7110407232330616,222.5400055614587
A-3412,2-amino-5-methylbenzene-1-sulfonic acid,"InChI=1S/C7H9NO3S/c1-5-2-3-6(8)7(4-5)12(9,10)11/h2-4H,8H2,1H3,(H,9,10,11)",LTPSRQRIPCVMKQ-UHFFFAOYSA-N,Cc1ccc(N)c(S(=O)(=O)O)c1,-1.4942009905000002,0.0378995047499999,2,G3,187.22,0.82392,45.40600000000001,12.0,3.0,2.0,5.0,1.0,66.0,1.0,0.0,0.0,1.0,80.39,70.7648719409469,3.4344939089006497,397.1125573446092
A-3495,3-(2-hydroxyethyl)-p-phenylenediammonium sulphate,"InChI=1S/C8H12N2O.H2O4S/c1-5(11)7-4-6(9)2-3-8(7)10;1-5(2,3)4/h2-5,11H,9-10H2,1H3;(H2,1,2,3,4)/p-2",PYHIZOBOFKBJLD-UHFFFAOYSA-L,CC(O)c1cc(N)ccc1N.O=S(=O)([O-])[O-],-0.6856367901,0.0,1,G1,248.25999999999996,-0.4336999999999997,56.375200000000014,16.0,7.0,3.0,8.0,1.0,92.0,1.0,0.0,0.0,1.0,152.53,93.27300728633548,3.845454411709097e-07,435.74193389572326
A-3514,phenyl acetate,"InChI=1S/C8H8O2/c1-7(9)10-8-5-3-2-4-6-8/h2-6H,1H3",IPBVNPXQWQGGJP-UHFFFAOYSA-N,CC(=O)Oc1ccccc1,-1.3735951622999998,0.0,1,G1,136.14999999999998,1.6119,37.75100000000001,10.0,2.0,0.0,2.0,1.0,52.0,1.0,0.0,0.0,1.0,26.3,59.43635467784082,2.6742416022951265,215.9590174505521
A-3518,"2,4-dimethylaniline","InChI=1S/C8H11N/c1-6-3-4-8(9)7(2)5-6/h3-5H,9H2,1-2H3",CZZZABOKJQXEBO-UHFFFAOYSA-N,Cc1ccc(N)c(C)c1,-1.3352536727,0.0,1,G1,121.183,1.88564,40.32840000000001,9.0,1.0,1.0,1.0,0.0,48.0,1.0,0.0,0.0,1.0,26.02,55.501178045302886,3.1716780304409156,215.80766205433727
A-3519,2-chloroaniline,"InChI=1S/C6H6ClN/c7-5-3-1-2-4-6(5)8/h1-4H,8H2",AKCRQHGQIJBRMN-UHFFFAOYSA-N,Nc1ccccc1Cl,-1.3575741458,0.1164180675190559,4,G5,127.574,1.9222,35.86440000000001,8.0,1.0,1.0,2.0,0.0,42.0,1.0,0.0,0.0,1.0,26.02,53.07456004339135,3.134861511345448,164.63833891467198
A-3521,phenyl diamidophosphate,"InChI=1S/C6H9N2O2P/c7-11(8,9)10-6-4-2-1-3-5-6/h1-5H,(H4,7,8,9)",AYRRNFHDJUXLEQ-UHFFFAOYSA-N,NP(N)(=O)Oc1ccccc1,-1.4876534031,0.0,1,G1,172.124,1.0909000000000002,43.05130000000001,11.0,2.0,2.0,5.0,2.0,60.0,1.0,0.0,0.0,1.0,78.34,64.71341865276594,2.736661467071344,269.17058906924865
A-3530,2-hydroxy-3-phenoxypropyl prop-2-enoate,"InChI=1S/C12H14O4/c1-2-8-15-12(14)11(13)9-16-10-6-4-3-5-7-10/h3-7,9,13H,2,8H2,1H3/b11-9-",FOKZHJCFBNVOAV-LUAWRHEFSA-N,CCCOC(=O)/C(O)=C/Oc1ccccc1,-1.6225463588,0.0,1,G1,222.24,2.418,59.03180000000003,16.0,4.0,1.0,4.0,5.0,86.0,1.0,0.0,0.0,1.0,55.760000000000005,94.11429908494593,2.4762076204837555,356.54132668856164
A-3533,3-amino-2-chloro-6-methylphenol,"InChI=1S/C7H8ClNO/c1-4-2-3-5(9)6(8)7(4)10/h2-3,10H,9H2,1H3",XYRDGCCCBJITBH-UHFFFAOYSA-N,Cc1ccc(N)c(Cl)c1O,-1.4815528695,0.0,1,G1,157.60000000000002,1.93622,42.26620000000001,10.0,2.0,2.0,3.0,0.0,54.0,1.0,0.0,0.0,1.0,46.25,64.23373590998396,3.3421538077705124,233.02817392215357
A-3542,toluenesulphonamide,"InChI=1S/C7H9NO2S/c1-6-4-2-3-5-7(6)11(8,9)10/h2-5H,1H3,(H2,8,9,10)",YCMLQMDWSXFTIF-UHFFFAOYSA-N,Cc1ccccc1S(N)(=O)=O,-1.5259868531,0.2517250967,2,G3,171.22099999999998,0.6424200000000001,42.55220000000001,11.0,2.0,1.0,4.0,1.0,60.0,1.0,0.0,0.0,1.0,60.16,65.89701182332136,3.3721948109608206,356.45825254565904
A-3544,"2-methylbenzene-1,4-diamine; sulfuric acid","InChI=1S/C7H10N2.H2O4S/c1-5-4-6(8)2-3-7(5)9;1-5(2,3)4/h2-4H,8-9H2,1H3;(H2,1,2,3,4)",KZTWOUOZKZQDMN-UHFFFAOYSA-N,Cc1cc(N)ccc1N.O=S(=O)(O)O,-1.641347932,0.0,1,G1,220.25000000000003,0.5066200000000003,54.1812,14.0,4.0,4.0,7.0,0.0,80.0,1.0,0.0,0.0,1.0,126.64,82.11383141974288,2.9177777140296316e-07,394.1508637469252
A-3547,3-(trifluoromethyl)aniline,"InChI=1S/C7H6F3N/c8-7(9,10)5-2-1-3-6(11)4-5/h1-4H,11H2",VIUDTWATMPPKEL-UHFFFAOYSA-N,Nc1cccc(C(F)(F)F)c1,-1.5081956214,0.0331637235631782,4,G5,161.12599999999998,2.2876000000000003,35.856400000000015,11.0,1.0,1.0,4.0,0.0,60.0,1.0,0.0,0.0,1.0,26.02,61.63284213968499,3.0599016922179834,254.1077532761268
A-3549,"N-(2,5-dimethoxyphenyl)acetamide","InChI=1S/C10H13NO3/c1-7(12)11-9-6-8(13-2)4-5-10(9)14-3/h4-6H,1-3H3,(H,11,12)",HOZRMSVNIKYCMB-UHFFFAOYSA-N,COc1ccc(OC)c(NC(C)=O)c1,-1.5915498548,0.0,1,G1,195.218,1.6622,53.84970000000003,14.0,3.0,1.0,4.0,3.0,76.0,1.0,0.0,0.0,1.0,47.56,82.82964631974899,3.013413545094133,336.13903760611623
A-3551,potassium 4-(propan-2-yl)benzene-1-sulfonate,"InChI=1S/C9H12O3S.K/c1-7(2)8-3-5-9(6-4-8)13(10,11)12;/h3-7H,1-2H3,(H,10,11,12);/q;+1/p-1",RVRONQZKSCNZRS-UHFFFAOYSA-M,CC(C)c1ccc(S(=O)(=O)[O-])cc1.[K+],0.3208872115,0.0,1,G1,238.34899999999996,-1.281899999999999,48.49420000000003,14.0,3.0,0.0,5.0,2.0,72.0,1.0,0.0,0.0,1.0,57.2,127.07743016809,1.6899995216001402e-06,381.0230231883477
A-3553,sodium 4-(propan-2-yl)benzene-1-sulfonate,"InChI=1S/C9H12O3S.Na/c1-7(2)8-3-5-9(6-4-8)13(10,11)12;/h3-7H,1-2H3,(H,10,11,12);/q;+1/p-1",QEKATQBVVAZOAY-UHFFFAOYSA-M,CC(C)c1ccc(S(=O)(=O)[O-])cc1.[Na+],0.3460227367,0.0,1,G1,222.241,-1.281899999999999,48.49420000000003,14.0,3.0,0.0,5.0,2.0,72.0,1.0,0.0,0.0,1.0,57.2,106.56826509543934,1.6899995216001402e-06,381.0230231883477
A-3599,2-[(2-hydroxyethyl)(phenyl)amino]ethan-1-ol,"InChI=1S/C10H15NO2/c12-8-6-11(7-9-13)10-4-2-1-3-5-10/h1-5,12-13H,6-9H2",OJPDDQSCZGTACX-UHFFFAOYSA-N,OCCN(CCO)c1ccccc1,-0.5833809314,0.0760737417699219,3,G5,181.235,0.4775999999999998,52.82660000000004,13.0,3.0,2.0,3.0,5.0,72.0,1.0,0.0,0.0,1.0,43.7,78.23947275167879,2.6389166230335177,219.62617188863905
A-3615,"benzene-1,2-diol","InChI=1S/C6H6O2/c7-5-3-1-2-4-6(5)8/h1-4,7-8H",YCIMNLLNPGFGHC-UHFFFAOYSA-N,Oc1ccccc1O,0.6123418909,0.05611815265,2,G3,110.11199999999998,1.0978,29.771599999999992,8.0,2.0,2.0,2.0,0.0,42.0,1.0,0.0,0.0,1.0,40.46,47.01987062388899,3.134861511345448,162.63833891467198
A-3636,sodium 3-(4-methyl-2-nitrophenoxy)propanesulphonate,"InChI=1S/C10H13NO6S.Na/c1-8-3-4-10(9(7-8)11(12)13)17-5-2-6-18(14,15)16;/h3-4,7H,2,5-6H2,1H3,(H,14,15,16);/q;+1/p-1",NYUMEYVVSINMIU-UHFFFAOYSA-M,Cc1ccc(OCCCS(=O)(=O)[O-])c([N+](=O)[O-])c1.[Na+],0.1703103591,0.0,1,G1,297.264,-1.7786799999999974,62.50960000000002,19.0,6.0,0.0,9.0,6.0,100.0,1.0,0.0,0.0,1.0,109.57000000000002,132.69972816184264,3.23999795160134e-06,544.9509008937364
A-3654,"2-(2,4-diaminophenoxy)ethan-1-ol dihydrochloride","InChI=1S/C8H12N2O2.2ClH/c9-6-1-2-8(7(10)5-6)12-4-3-11;;/h1-2,5,11H,3-4,9-10H2;2*1H",VXYWXJXCQSDNHX-UHFFFAOYSA-N,Nc1ccc(OCCO)c(N)c1.[Cl-].[Cl-].[H+].[H+],0.2461592973999999,0.0,1,G1,241.11799999999997,-5.5448999999999975,50.07160000000001,14.0,4.0,3.0,6.0,3.0,82.0,1.0,0.0,0.0,1.0,81.5,98.0246309681084,-1.7999998755000094e-07,280.2152649298467
A-3661,1-phenylethanamine,"InChI=1S/C8H11N/c1-7(9)8-5-3-2-4-6-8/h2-7H,9H2,1H3/t7-/m0/s1",RQEUFEKYXDPUSK-ZETCQYMHSA-N,C[C@H](N)c1ccccc1,-0.4601924093,0.0,1,G1,121.18299999999996,1.7063,39.04440000000001,9.0,1.0,1.0,1.0,1.0,48.0,1.0,0.0,0.0,1.0,26.02,55.50117804530289,2.848234050597751,167.1823264341432
A-3665,sodium 4-(methoxycarbonyl)phenolate,"InChI=1S/C8H8O3.Na/c1-11-8(10)6-2-4-7(9)5-3-6;/h2-5,9H,1H3;/q;+1/p-1",PESXGULMKCKJCC-UHFFFAOYSA-M,COC(=O)c1ccc([O-])cc1.[Na+],0.3803001877,0.0,1,G1,174.13099999999997,-2.4491999999999985,37.22750000000001,12.0,3.0,0.0,4.0,1.0,58.0,1.0,0.0,0.0,1.0,49.36,92.6439880527488,1.2099997384750588e-06,255.5104122853712
A-3691,(1R)-1-phenylethan-1-amine,"InChI=1S/C8H11N/c1-7(9)8-5-3-2-4-6-8/h2-7H,9H2,1H3",RQEUFEKYXDPUSK-UHFFFAOYSA-N,CC(N)c1ccccc1,-0.4813817083,0.0105946494999999,2,G3,121.18299999999996,1.7063,39.04440000000001,9.0,1.0,1.0,1.0,1.0,48.0,1.0,0.0,0.0,1.0,26.02,55.50117804530289,2.848234050597751,167.1823264341432
A-3696,(4-chlorophenyl)hydrazine,"InChI=1S/C6H7ClN2.ClH/c7-5-1-3-6(9-8)4-2-5;/h1-4,9H,8H2;1H",YQVZREHUWCCHHX-UHFFFAOYSA-N,NNc1ccc(Cl)cc1.[Cl-].[H+],-1.5636654662,0.0,1,G1,179.04999999999998,-1.2578999999999994,40.374100000000006,10.0,2.0,2.0,4.0,1.0,56.0,1.0,0.0,0.0,1.0,38.05,72.23244986927932,0.0,190.27870077930328
A-3700,"3,5-dimethylaniline","InChI=1S/C8H11N/c1-6-3-7(2)5-8(9)4-6/h3-5H,9H2,1-2H3",MKARNSWMMBGSHX-UHFFFAOYSA-N,Cc1cc(C)cc(N)c1,-1.4022004623,0.0,1,G1,121.183,1.88564,40.32840000000001,9.0,1.0,1.0,1.0,0.0,48.0,1.0,0.0,0.0,1.0,26.02,55.50117804530289,3.165670309917317,165.32984016148868
A-3706,amino(phenyl)acetic acid,"InChI=1S/C8H9NO2/c9-7(8(10)11)6-4-2-1-3-5-6/h1-5,7H,9H2,(H,10,11)/t7-/m1/s1",ZGUNAGUHMKGQNY-SSDOTTSWSA-N,[NH3+][C@@H](C(=O)[O-])c1ccccc1,-1.5082784056999998,0.0,1,G1,151.165,-1.2804999999999995,37.07810000000001,11.0,2.0,1.0,3.0,2.0,58.0,1.0,0.0,0.0,1.0,67.77000000000001,64.45693389754267,2.851177890164404,245.52878773918388
A-3713,4-(4-hydroxyphenyl)butan-2-one,"InChI=1S/C10H12O2/c1-8(11)2-3-9-4-6-10(12)7-5-9/h4-7,12H,2-3H2,1H3",NJGBTKGETPDVIK-UHFFFAOYSA-N,CC(=O)CCc1ccc(O)cc1,-1.5520409413,0.0,1,G1,164.204,1.9138,47.10880000000003,12.0,2.0,1.0,2.0,3.0,64.0,1.0,0.0,0.0,1.0,37.3,71.84692742932317,2.5298890742894535,261.6719978261822
A-3720,"2,2'-({4-[(2-hydroxyethyl)amino]-3-nitrophenyl}imino)diethanol","InChI=1S/C12H19N3O5/c16-6-3-13-11-2-1-10(9-12(11)15(19)20)14(4-7-17)5-8-18/h1-2,9,13,16-18H,3-8H2",MIWUTEVJIISHCP-UHFFFAOYSA-N,O=[N+]([O-])c1cc(N(CCO)CCO)ccc1NCCO,-1.7953855716,0.0,1,G1,285.29999999999995,-0.21,75.05650000000003,20.0,7.0,4.0,8.0,9.0,112.0,1.0,0.0,0.0,1.0,119.1,115.9664286387759,3.0346742293695277,435.10101282974176
A-3725,"2,4-dichlorophenol","InChI=1S/C6H4Cl2O/c7-4-1-2-6(9)5(8)3-4/h1-3,9H",HFZWRUODUSTPEG-UHFFFAOYSA-N,Oc1ccc(Cl)cc1Cl,-1.5589830837,0.0184917830999999,2,G3,163.003,2.699,38.12680000000001,9.0,1.0,1.0,3.0,0.0,48.0,1.0,0.0,0.0,1.0,20.23,62.83216932545633,3.171678030440915,222.29788705001033
A-3762,3-amino-4-methylbenzamide,"InChI=1S/C8H10N2O/c1-5-2-3-6(8(10)11)4-7(5)9/h2-4H,9H2,1H3,(H2,10,11)",VYBKAZXQKUFAHG-UHFFFAOYSA-N,Cc1ccc(C(N)=O)cc1N,-0.5767319197,0.0,1,G1,150.18099999999998,0.6761200000000003,44.109300000000005,11.0,2.0,2.0,3.0,1.0,58.0,1.0,0.0,0.0,1.0,69.11,65.00259084235937,3.1515496683060507,294.14357423078934
A-3773,"4-methylbenzene-1,3-diamine","InChI=1S/C7H10N2/c1-5-2-3-6(8)4-7(5)9/h2-4H,8-9H2,1H3",VOZKAJLKRJDJLL-UHFFFAOYSA-N,Cc1ccc(N)cc1N,-0.5071845321,0.0,1,G1,122.17100000000002,1.15942,40.0038,9.0,2.0,2.0,2.0,0.0,48.0,1.0,0.0,0.0,1.0,52.04,54.476126627918994,3.171678030440915,218.15617759993404
A-3774,diaminotoluene,"InChI=1S/C7H10N2/c1-5-4-6(8)2-3-7(5)9/h2-4H,8-9H2,1H3",OBCSAIDCZQSFQH-UHFFFAOYSA-N,Cc1cc(N)ccc1N,-0.5071845321,0.0763050816,2,G3,122.171,1.15942,40.0038,9.0,2.0,2.0,2.0,0.0,48.0,1.0,0.0,0.0,1.0,52.04,54.476126627919,3.1716780304409156,218.15617759993404