ID,Name,InChI,InChIKey,SMILES,Solubility,SD,Occurrences,Group,MolWt,MolLogP,MolMR,HeavyAtomCount,NumHAcceptors,NumHDonors,NumHeteroatoms,NumRotatableBonds,NumValenceElectrons,NumAromaticRings,NumSaturatedRings,NumAliphaticRings,RingCount,TPSA,LabuteASA,BalabanJ,BertzCT
C-1960,methyl  2-ethyl-2-phenylmalonurate,"InChI=1S/C13H16N2O4/c1-3-13(11(17)19-2,10(16)15-12(14)18)9-7-5-4-6-8-9/h4-8H,3H2,1-2H3,(H3,14,15,16,18)",MYLAIRXFVDTCCC-UHFFFAOYSA-N,CCC(C(=O)NC(N)=O)(C(=O)OC)c1ccccc1,-2.75,0.0,1,G1,264.281,0.7023000000000003,68.15310000000002,19.0,4.0,2.0,6.0,4.0,102.0,1.0,0.0,0.0,1.0,98.49,110.47386233053216,3.349553503462868,486.6764009743266
C-1962,4-[(1-methyl-2-methoxy)ethoxy]carboxyacetanilide; 4-[(2-methoxy-1-methylethyloxy)carbonyloxy]acetanilide,"InChI=1S/C13H17NO5/c1-9(8-17-3)18-13(16)19-12-6-4-11(5-7-12)14-10(2)15/h4-7,9H,8H2,1-3H3,(H,14,15)",DRVLSPUGFXRFLW-UHFFFAOYSA-N,COCC(C)OC(=O)Oc1ccc(NC(C)=O)cc1,-2.48,0.0,1,G1,267.281,2.1952999999999996,69.19270000000003,19.0,5.0,1.0,6.0,5.0,104.0,1.0,0.0,0.0,1.0,73.86000000000001,111.19953999248943,2.4824412426104723,429.16464621631974
C-1963,4-hexyloxycarbonyloxyacetanilide,"InChI=1S/C15H21NO4/c1-3-4-5-6-11-19-15(18)20-14-9-7-13(8-10-14)16-12(2)17/h7-10H,3-6,11H2,1-2H3,(H,16,17)",QWBBNHZKIXNKGJ-UHFFFAOYSA-N,CCCCCCOC(=O)Oc1ccc(NC(C)=O)cc1,-4.32,0.0,1,G1,279.336,3.740700000000002,76.86370000000004,20.0,4.0,1.0,5.0,7.0,110.0,1.0,0.0,0.0,1.0,64.63,118.8158789917758,2.2898528792415944,428.0045832347821
C-1967,"n,n-diisobutyl-2-benzoyloxyacetamide","InChI=1S/C17H25NO3/c1-13(2)10-18(11-14(3)4)16(19)12-21-17(20)15-8-6-5-7-9-15/h5-9,13-14H,10-12H2,1-4H3",KXYFWLVSYHRZJL-UHFFFAOYSA-N,CC(C)CN(CC(C)C)C(=O)COC(=O)c1ccccc1,-3.56,0.0,1,G1,291.39099999999996,2.9840000000000018,82.98050000000005,21.0,3.0,0.0,4.0,7.0,116.0,1.0,0.0,0.0,1.0,46.61,126.64218947765748,2.5461416217716883,444.3628417120062
C-1976,"2-benzoyloxy-n,n-bis(2-hydroxypropyl)acetamide; n,n-bis(2-hydroxypropyl)-2-benzoyloxyacetamide","InChI=1S/C15H21NO5/c1-11(17)8-16(9-12(2)18)14(19)10-21-15(20)13-6-4-3-5-7-13/h3-7,11-12,17-18H,8-10H2,1-2H3",LDCFNNYCIXKMNJ-UHFFFAOYSA-N,CC(O)CN(CC(C)O)C(=O)COC(=O)c1ccccc1,-1.18,0.0,1,G1,295.335,0.4335999999999996,76.66610000000004,21.0,5.0,2.0,6.0,7.0,116.0,1.0,0.0,0.0,1.0,87.07,123.50077275325629,2.5461416217716883,448.3915981068608
C-1978,acetaminophen  decanoate,"InChI=1S/C18H27NO3/c1-3-4-5-6-7-8-9-10-18(21)22-17-13-11-16(12-14-17)19-15(2)20/h11-14H,3-10H2,1-2H3,(H,19,20)",MKSNUUCDBOSWNQ-UHFFFAOYSA-N,CCCCCCCCCC(=O)Oc1ccc(NC(C)=O)cc1,-4.53,0.0,1,G1,305.41800000000006,4.691100000000004,88.99070000000005,22.0,3.0,1.0,4.0,10.0,122.0,1.0,0.0,0.0,1.0,55.4,132.79716010545874,2.1745356827190343,453.9050022168035
C-1983,4-amino-2-sulfobenzoic acid,"InChI=1S/C7H7NO5S/c8-4-1-2-5(7(9)10)6(3-4)14(11,12)13/h1-3H,8H2,(H,9,10)(H,11,12,13)",YPNUYFJLBFZDTE-UHFFFAOYSA-N,Nc1ccc(C(=O)O)c(S(=O)(=O)O)c1,-1.86,0.0,1,G1,217.20199999999997,0.2136999999999999,47.6283,14.0,4.0,3.0,7.0,2.0,76.0,1.0,0.0,0.0,1.0,117.69,79.72062779318667,3.539708805100715,478.8535635303721
C-1986,"2,3,4,6-tetrachlorophenoxyacetic  acid","InChI=1S/C8H4Cl4O3/c9-3-1-4(10)8(7(12)6(3)11)15-2-5(13)14/h1H,2H2,(H,13,14)",FCZCIRUCCZUXMC-UHFFFAOYSA-N,O=C(O)COc1c(Cl)cc(Cl)c(Cl)c1Cl,-3.41,0.0,1,G1,289.929,3.7636,59.612800000000014,15.0,2.0,1.0,7.0,3.0,82.0,1.0,0.0,0.0,1.0,46.53,105.44365333756352,3.06621498706796,405.36352218380654
C-1993,"n1,n1-diethylsulfanilamide","InChI=1S/C10H16N2O2S/c1-3-12(4-2)15(13,14)10-7-5-9(11)6-8-10/h5-8H,3-4,11H2,1-2H3",LTFVELCIFWEGGA-UHFFFAOYSA-N,CCN(CC)S(=O)(=O)c1ccc(N)cc1,-2.63,0.0,1,G1,228.317,1.2993,60.961200000000034,15.0,3.0,1.0,5.0,4.0,84.0,1.0,0.0,0.0,1.0,63.400000000000006,90.75167183671458,3.1056171070977703,407.5534582564168
C-2018,"n,o-diacetyl-l-tyrosinamide","InChI=1S/C13H16N2O4/c1-8(16)15-12(13(14)18)7-10-3-5-11(6-4-10)19-9(2)17/h3-6,12H,7H2,1-2H3,(H2,14,18)(H,15,16)",QETYUVKBQJLLLM-UHFFFAOYSA-N,CC(=O)NC(Cc1ccc(OC(C)=O)cc1)C(N)=O,-1.9,0.0,1,G1,264.28099999999995,0.1443999999999999,68.25410000000002,19.0,4.0,2.0,6.0,5.0,102.0,1.0,0.0,0.0,1.0,98.49,110.47386233053216,2.7158412432906793,481.9215134721631
C-2042,pentachlorophenoxyacetic  acid,"InChI=1S/C8H3Cl5O3/c9-3-4(10)6(12)8(7(13)5(3)11)16-1-2(14)15/h1H2,(H,14,15)",OBEUDXCKNSDQIL-UHFFFAOYSA-N,O=C(O)COc1c(Cl)c(Cl)c(Cl)c(Cl)c1Cl,-3.75,0.0,1,G1,324.374,4.417,64.62280000000001,16.0,2.0,1.0,8.0,3.0,88.0,1.0,0.0,0.0,1.0,46.53,115.74691956444518,3.228881979004343,416.7853022859085
C-2054,"styphnic  acid; 1,3-dihydroxy-2,4,6-trinitrobenzene","InChI=1S/C6H3N3O8/c10-5-2(7(12)13)1-3(8(14)15)6(11)4(5)9(16)17/h1,10-11H",IXHMHWIBCIYOAZ-UHFFFAOYSA-N,O=[N+]([O-])c1cc([N+](=O)[O-])c(O)c([N+](=O)[O-])c1O,-3.51,0.92415,2,G2,245.103,0.8224000000000007,49.7348,17.0,8.0,2.0,11.0,3.0,90.0,1.0,0.0,0.0,1.0,169.88,90.9787977913884,3.756255091963572,500.30232072844126
C-2056,"n1,n4-diacetylsulfanilamide;  n4-acetylsulfacetamide","InChI=1S/C10H12N2O4S/c1-7(13)11-9-3-5-10(6-4-9)17(15,16)12-8(2)14/h3-6H,1-2H3,(H,11,13)(H,12,14)",YTJJPFRVBNFIBN-UHFFFAOYSA-N,CC(=O)Nc1ccc(S(=O)(=O)NC(C)=O)cc1,-2.78,0.0,1,G1,256.283,0.4697999999999998,61.748200000000026,17.0,4.0,2.0,7.0,3.0,92.0,1.0,0.0,0.0,1.0,92.34,99.07471603680207,2.944257041587932,533.9292547962568
C-2090,dinoseb  acetate,"InChI=1S/C12H14N2O6/c1-4-7(2)10-5-9(13(16)17)6-11(14(18)19)12(10)20-8(3)15/h5-7H,4H2,1-3H3",RDJTWDKSYLLHRW-UHFFFAOYSA-N,CCC(C)c1cc([N+](=O)[O-])cc([N+](=O)[O-])c1OC(C)=O,-2.25,0.0708999999999999,2,G3,282.252,2.9418000000000015,69.76580000000001,20.0,6.0,0.0,8.0,5.0,108.0,1.0,0.0,0.0,1.0,112.58,114.20207458042688,3.6073037989964063,569.3111293243142
C-2115,ibuprofen ester iic; n-methyl-n-[2-(2'-(4''-isobutylphenyl)propanoyloxy)acetyl]glycineamide,"InChI=1S/C18H26N2O4/c1-12(2)9-14-5-7-15(8-6-14)13(3)18(23)24-11-17(22)20(4)10-16(19)21/h5-8,12-13H,9-11H2,1-4H3,(H2,19,21)",KHKOSGDSOXGMOO-UHFFFAOYSA-N,CC(C)Cc1ccc(C(C)C(=O)OCC(=O)N(C)CC(N)=O)cc1,-3.41,0.0,1,G1,334.41600000000005,1.4754999999999998,91.18940000000003,24.0,4.0,1.0,6.0,8.0,132.0,1.0,0.0,0.0,1.0,89.70000000000002,142.50854438911054,2.5496900990841,581.1864862495336
C-2193,"3,5-diiodotyrosine","InChI=1S/C9H9I2NO3/c10-5-1-4(2-6(11)8(5)13)3-7(12)9(14)15/h1-2,7,13H,3,12H2,(H,14,15)",NYPYHUZRZVSYKL-UHFFFAOYSA-N,NC(Cc1cc(I)c(O)c(I)c1)C(=O)O,-2.86,0.0,1,G1,432.98300000000006,1.5558,72.85600000000001,15.0,3.0,3.0,6.0,3.0,82.0,1.0,0.0,0.0,1.0,83.55000000000001,114.13978600622258,2.923727030742346,371.9390010832792
C-2325,iopanoic acid,"InChI=1S/C11H12I3NO2/c1-2-5(11(16)17)3-6-7(12)4-8(13)10(15)9(6)14/h4-5H,2-3,15H2,1H3,(H,16,17)",OIRFJRBSRORBCM-UHFFFAOYSA-N,CCC(Cc1c(I)cc(I)c(N)c1I)C(=O)O,-4.58,0.0,1,G1,570.934,3.7359000000000018,94.12620000000004,17.0,2.0,2.0,6.0,4.0,94.0,1.0,0.0,0.0,1.0,63.32,141.3372746038634,3.143861008246418,448.83295075875424
C-2339,"entacapone analog (2a);  (e)-2-cyano-n,n-diethyl-3-[3-n-ethylcarbamoyloxy-4-hydroxy-5-nitrophenyl]propenamide","InChI=1S/C17H20N4O6/c1-4-19-17(24)27-14-9-11(8-13(15(14)22)21(25)26)7-12(10-18)16(23)20(5-2)6-3/h7-9,22H,4-6H2,1-3H3,(H,19,24)/b12-7-",HVMGUPMFFCLQNI-GHXNOFRVSA-N,CCNC(=O)Oc1cc(/C=C(/C#N)C(=O)N(CC)CC)cc([N+](=O)[O-])c1O,-3.18,0.0,1,G1,376.3690000000002,2.18408,95.97990000000004,27.0,7.0,2.0,10.0,7.0,144.0,1.0,0.0,0.0,1.0,145.79999999999998,155.34223778524577,3.4299476690971993,808.3770361972059
C-2392,"acetrizoic  acid;  3-acetylamino-2,4,6-triiodobenzoic  acid","InChI=1S/C9H6I3NO3/c1-3(14)13-8-5(11)2-4(10)6(7(8)12)9(15)16/h2H,1H3,(H,13,14)(H,15,16)",GNOGSFBXBWBTIG-UHFFFAOYSA-N,CC(=O)Nc1c(I)cc(I)c(C(=O)O)c1I,-2.64,0.0,1,G1,556.863,3.157000000000001,85.85600000000002,16.0,2.0,2.0,7.0,2.0,86.0,1.0,0.0,0.0,1.0,66.4,132.97888396170927,3.443521249485579,473.5572816111098
C-2403,"1-(methylaminoacetylamino)-3-chloro-4,6-disulfamoylbenzene; n-(5-chloro-2,4-disulfamoylphenyl)-2-(methylamino)acetamide","InChI=1S/C9H13ClN4O5S2/c1-13-4-9(15)14-6-2-5(10)7(20(11,16)17)3-8(6)21(12,18)19/h2-3,13H,4H2,1H3,(H,14,15)(H2,11,16,17)(H2,12,18,19)",QJRULOWVWPKJHB-UHFFFAOYSA-N,CNCC(=O)Nc1cc(Cl)c(S(N)(=O)=O)cc1S(N)(=O)=O,-1.27,0.0,1,G1,356.8130000000001,-1.2072999999999985,76.75480000000002,21.0,6.0,4.0,12.0,5.0,118.0,1.0,0.0,0.0,1.0,161.45,126.29207533568388,3.517733084461139,775.5729041164772
C-2405,diisopropyl  2-(4-nitrophenylsulfonyl)succinate; 3-isopropoxycarbonyl-3-(4-nitrophenylsulfonyl)propanoic acid isopropyl ester,"InChI=1S/C16H21NO8S/c1-10(2)24-15(18)9-14(16(19)25-11(3)4)26(22,23)13-7-5-12(6-8-13)17(20)21/h5-8,10-11,14H,9H2,1-4H3",UJXAIAIZGQQXIX-UHFFFAOYSA-N,CC(C)OC(=O)CC(C(=O)OC(C)C)S(=O)(=O)c1ccc([N+](=O)[O-])cc1,-4.29,0.0,1,G1,387.41000000000014,2.0304,91.14320000000006,26.0,8.0,0.0,10.0,8.0,144.0,1.0,0.0,0.0,1.0,129.88000000000002,150.9093330268507,3.2225080820430487,767.9444114015362
C-2467,prosulfalin,"InChI=1S/C14H22N4O6S2/c1-5-7-16(8-6-2)14-12(17(19)20)9-11(10-13(14)18(21)22)26(23,24)15-25(3)4/h9-10H,5-8H2,1-4H3",LKVOXDJKFRBRQV-UHFFFAOYSA-N,CCCN(CCC)c1c([N+](=O)[O-])cc(S(=O)(=O)N=S(C)C)cc1[N+](=O)[O-],-4.86,0.0,1,G1,406.48600000000016,2.8796000000000017,101.37260000000003,26.0,7.0,0.0,12.0,9.0,146.0,1.0,0.0,0.0,1.0,136.02,154.20480787554268,3.8394224507006953,792.8339086039589
C-2503,"amidotrizoic  acid;  diatrizoic acid;  3,5-diacetamido-2,4,6-triiodobenzoic acid","InChI=1S/C11H9I3N2O4/c1-3(17)15-9-6(12)5(11(19)20)7(13)10(8(9)14)16-4(2)18/h1-2H3,(H,15,17)(H,16,18)(H,19,20)",YVPYQUNUQOZFHG-UHFFFAOYSA-N,CC(=O)Nc1c(I)c(NC(C)=O)c(I)c(C(=O)O)c1I,-2.01,0.0,1,G1,613.9150000000001,3.1154,100.15970000000004,20.0,3.0,3.0,9.0,3.0,108.0,1.0,0.0,0.0,1.0,95.5,155.42015247415432,3.676002394084443,573.1711797623659
C-2507,"2,3-dichloro-4,6-disulfamoyl-1-glycylglycylamidobenzene","InChI=1S/C10H13Cl2N5O6S2/c11-8-4(24(14,20)21)1-5(25(15,22)23)10(9(8)12)17-7(19)3-16-6(18)2-13/h1H,2-3,13H2,(H,16,18)(H,17,19)(H2,14,20,21)(H2,15,22,23)",NFGGAIZJSZLPOX-UHFFFAOYSA-N,NCC(=O)NCC(=O)Nc1c(S(N)(=O)=O)cc(S(N)(=O)=O)c(Cl)c1Cl,-1.23,0.0,1,G1,434.2830000000002,-1.6983999999999997,89.9022,25.0,7.0,5.0,15.0,6.0,140.0,1.0,0.0,0.0,1.0,204.54,152.46169647401868,3.4265359137532543,931.604676424142
D-267,phoxim,"InChI=1S/C12H15N2O3PS/c1-3-15-18(19,16-4-2)17-14-12(10-13)11-8-6-5-7-9-11/h5-9H,3-4H2,1-2H3/b14-12+",ATROHALUCMTWTB-WYMLVPIESA-N,CCOP(=S)(OCC)O/N=C(\C#N)c1ccccc1,-4.63,0.1159500000000002,2,G3,298.304,3.228380000000002,77.21400000000004,19.0,6.0,0.0,7.0,7.0,102.0,1.0,0.0,0.0,1.0,63.84,117.58356026441706,2.8809507542904287,503.4558226694406
D-508,benzotrifluoride,"InChI=1S/C7H5F3/c8-7(9,10)6-4-2-1-3-5-6/h1-5H",GETTZEONDQJALK-UHFFFAOYSA-N,FC(F)(F)c1ccccc1,-2.511,0.2538,2,G3,146.111,2.705400000000001,31.444,10.0,0.0,0.0,3.0,0.0,54.0,1.0,0.0,0.0,1.0,0.0,56.29295144267227,2.9660431785816628,199.8412460336634
D-624,4-trifluoromethyl-2-nitrophenol,"InChI=1S/C7H4F3NO3/c8-7(9,10)4-1-2-6(12)5(3-4)11(13)14/h1-3,12H",XZEDEVRSUANQEM-UHFFFAOYSA-N,O=[N+]([O-])c1cc(C(F)(F)F)ccc1O,-2.503,0.0,1,G1,207.10699999999997,2.3192000000000004,39.763200000000005,14.0,3.0,1.0,7.0,1.0,76.0,1.0,0.0,0.0,1.0,63.37,75.74016091736809,3.267886414704282,374.93303613863793
D-874,p-hydroxypropiophenone,"InChI=1S/C9H10O2/c1-2-9(11)7-3-5-8(10)6-4-7/h3-6,10H,2H2,1H3",RARSHUDCJQSEFJ-UHFFFAOYSA-N,CCC(=O)c1ccc(O)cc1,-2.639,0.0,1,G1,150.177,1.9848999999999997,42.728300000000026,11.0,2.0,1.0,2.0,2.0,58.0,1.0,0.0,0.0,1.0,37.3,65.48198531492656,2.8953480359887567,248.77017257091023
D-1360,"1-propanone, 1-(4-hydroxyphenyl)-","InChI=1S/C9H11NO/c1-2-9(11)7-3-5-8(10)6-4-7/h3-6H,2,10H2,1H3",FSWXOANXOQPCFF-UHFFFAOYSA-N,CCC(=O)c1ccc(N)cc1,-2.627,0.0065000000000001,2,G3,149.193,1.8615,45.475900000000024,11.0,2.0,1.0,2.0,2.0,58.0,1.0,0.0,0.0,1.0,43.09,66.02764225974326,2.8953480359887567,250.77017257091023
D-1418,3-nitrosalicyclic acid,"InChI=1S/C7H5NO5/c9-6-4(7(10)11)2-1-3-5(6)8(12)13/h1-3,9H,(H,10,11)",WWWFHFGUOIQNJC-UHFFFAOYSA-N,O=C(O)c1cccc([N+](=O)[O-])c1O,-2.149,0.0,1,G1,183.11899999999997,0.9986,41.72050000000001,13.0,4.0,2.0,6.0,2.0,68.0,1.0,0.0,0.0,1.0,100.67,72.19931056082916,3.3454419708109926,340.89569309988275
D-1431,"benzene, 2-chloro-1,3,5-trinitro-",InChI=1S/C6H2ClN3O6/c7-6-4(9(13)14)1-3(8(11)12)2-5(6)10(15)16/h1-2H,HJRJRUMKQCMYDL-UHFFFAOYSA-N,O=[N+]([O-])c1cc([N+](=O)[O-])c(Cl)c([N+](=O)[O-])c1,-2.6689999999999996,0.0,1,G1,247.55,2.064600000000001,51.41519999999999,16.0,6.0,0.0,10.0,3.0,84.0,1.0,0.0,0.0,1.0,129.42000000000002,91.69359651387802,3.5727545380551327,466.032394537425
D-1433,"1,2,4,5-benzenetetracarboxylic acid","InChI=1S/C10H6O8/c11-7(12)3-1-4(8(13)14)6(10(17)18)2-5(3)9(15)16/h1-2H,(H,11,12)(H,13,14)(H,15,16)(H,17,18)",CYIDZMCFTVVTJO-UHFFFAOYSA-N,O=C(O)c1cc(C(=O)O)c(C(=O)O)cc1C(=O)O,-1.259,0.0,1,G1,254.15,0.4794000000000001,54.27919999999999,18.0,4.0,4.0,8.0,4.0,94.0,1.0,0.0,0.0,1.0,149.2,98.71419498604254,3.7099095314521815,473.2355660235205
D-1458,"benzene, (trichloromethyl)-","InChI=1S/C7H5Cl3/c8-7(9,10)6-4-2-1-3-5-6/h1-5H",XEMRAKSQROQPBR-UHFFFAOYSA-N,ClC(Cl)(Cl)c1ccccc1,-3.5669999999999997,0.0,1,G1,195.47600000000003,3.513300000000002,45.679000000000016,10.0,0.0,0.0,3.0,0.0,54.0,1.0,0.0,0.0,1.0,0.0,74.7061439145386,2.9660431785816628,199.8412460336634
D-1552,"benzene, 1-methoxy-2,4-dinitro-","InChI=1S/C7H6N2O5/c1-14-7-3-2-5(8(10)11)4-6(7)9(12)13/h2-4H,1H3",CVYZVNVPQRKDLW-UHFFFAOYSA-N,COc1ccc([N+](=O)[O-])cc1[N+](=O)[O-],-3.107,0.0,1,G1,198.134,1.5116,46.302800000000005,14.0,5.0,0.0,7.0,3.0,74.0,1.0,0.0,0.0,1.0,95.51,78.21584190840005,3.2744144453933877,389.6665861464256
D-1625,"1,2-difluorobenzene",InChI=1S/C6H4F2/c7-5-3-1-2-4-6(5)8/h1-4H,GOYDNIKZWGIXJT-UHFFFAOYSA-N,Fc1ccccc1F,-2.0,0.4998,2,G3,114.094,1.9648,26.357999999999997,8.0,0.0,0.0,2.0,0.0,42.0,1.0,0.0,0.0,1.0,0.0,45.76247392534943,3.134861511345448,162.63833891467198
D-1748,"1,2,3-benzenetricarboxylic acid","InChI=1S/C9H6O6/c10-7(11)4-2-1-3-5(8(12)13)6(4)9(14)15/h1-3H,(H,10,11)(H,12,13)(H,14,15)",UJMDYLWCYJJYMO-UHFFFAOYSA-N,O=C(O)c1cccc(C(=O)O)c1C(=O)O,-0.8370000000000001,0.0,1,G1,210.14099999999996,0.7811999999999999,47.3199,15.0,3.0,3.0,6.0,3.0,78.0,1.0,0.0,0.0,1.0,111.9,83.39349701940613,3.55594512931231,415.6658332869801
D-1761,"benzene, 1-bromo-4-iodo-",InChI=1S/C6H4BrI/c7-5-1-3-6(8)4-2-5/h1-4H,UCCUXODGPMAHRL-UHFFFAOYSA-N,Brc1ccc(I)cc1,-4.452,0.0540500000000001,2,G3,282.90599999999995,3.053700000000001,46.85900000000001,8.0,0.0,0.0,2.0,0.0,42.0,1.0,0.0,0.0,1.0,0.0,70.56078884618196,3.0324555320336755,147.38833891467198
D-1788,"2,4,6-trinitroanisole","InChI=1S/C7H5N3O7/c1-17-7-5(9(13)14)2-4(8(11)12)3-6(7)10(15)16/h2-3H,1H3",FMXDVBRYDYFVGS-UHFFFAOYSA-N,COc1c([N+](=O)[O-])cc([N+](=O)[O-])cc1[N+](=O)[O-],-3.085,0.0,1,G1,243.13099999999997,1.4198000000000002,52.95719999999999,17.0,7.0,0.0,10.0,4.0,90.0,1.0,0.0,0.0,1.0,138.65,92.86881763089984,3.625430618211917,477.18394073503225
D-1795,"benzene, 1,2-diiodo-",InChI=1S/C6H4I2/c7-5-3-1-2-4-6(5)8/h1-4H,BBOLNFYSRZVALD-UHFFFAOYSA-N,Ic1ccccc1I,-4.217,0.0114499999999999,2,G3,329.906,2.8958000000000004,51.87600000000002,8.0,0.0,0.0,2.0,0.0,42.0,1.0,0.0,0.0,1.0,0.0,75.95507936158424,3.134861511345448,162.63833891467198
D-1821,"benzene, 1,3-diiodo-",InChI=1S/C6H4I2/c7-5-2-1-3-6(8)4-5/h1-4H,SFPQFQUXAJOWNF-UHFFFAOYSA-N,Ic1cccc(I)c1,-4.518,0.0260000000000002,2,G3,329.906,2.8958000000000004,51.87600000000001,8.0,0.0,0.0,2.0,0.0,42.0,1.0,0.0,0.0,1.0,0.0,75.95507936158424,3.077660437970554,166.38833891467198
D-1848,"benzene, 1-bromo-2-chloro-",InChI=1S/C6H4BrCl/c7-5-3-1-2-4-6(5)8/h1-4H,QBELEDRHMPMKHP-UHFFFAOYSA-N,Clc1ccccc1Br,-3.2030000000000003,0.2044227645509829,3,G5,191.455,3.1025,39.152000000000015,8.0,0.0,0.0,2.0,0.0,42.0,1.0,0.0,0.0,1.0,0.0,61.60221695202,3.134861511345448,164.63833891467198
D-2025,butachlor,"InChI=1S/C17H26ClNO2/c1-4-7-11-21-13-19(16(20)12-18)17-14(5-2)9-8-10-15(17)6-3/h8-10H,4-7,11-13H2,1-3H3",HKPHPIREJKHECO-UHFFFAOYSA-N,CCCCOCN(C(=O)CCl)c1c(CC)cccc1CC,-4.1930000000000005,0.0304000000000002,2,G3,311.85300000000007,4.1574000000000035,89.13100000000006,21.0,2.0,0.0,4.0,9.0,118.0,1.0,0.0,0.0,1.0,29.54,132.78393360449536,3.0405929299275014,426.1662903460974
D-2039,3-chlorophthalic acid,"InChI=1S/C8H5ClO4/c9-5-3-1-2-4(7(10)11)6(5)8(12)13/h1-3H,(H,10,11)(H,12,13)",BKFXSOCDAQACQM-UHFFFAOYSA-N,O=C(O)c1cccc(Cl)c1C(=O)O,-0.976,0.0,1,G1,200.57699999999997,1.7364000000000002,45.3706,13.0,2.0,2.0,5.0,2.0,68.0,1.0,0.0,0.0,1.0,74.6,78.37606527965143,3.427344204506423,372.4068180287228
D-2053,butamifos,"InChI=1S/C13H21N2O4PS/c1-5-11(4)14-20(21,18-6-2)19-13-9-10(3)7-8-12(13)15(16)17/h7-9,11H,5-6H2,1-4H3,(H,14,21)",OEYOMNZEMCPTKN-UHFFFAOYSA-N,CCOP(=S)(NC(C)CC)Oc1cc(C)ccc1[N+](=O)[O-],-4.814,0.0420500000000001,2,G3,332.3620000000001,3.931120000000003,87.26110000000004,21.0,5.0,1.0,8.0,8.0,118.0,1.0,0.0,0.0,1.0,73.63,129.76539350623858,3.112387649797256,552.9728394805226
E-36,"1,2,4-trimethylbenzene","InChI=1S/C9H12/c1-7-4-5-8(2)9(3)6-7/h4-6H,1-3H3",GWHJZXXIDMPWGX-UHFFFAOYSA-N,Cc1ccc(C)c(C)c1,-3.31,0.0066251468,2,G3,120.19499999999996,2.611860000000001,40.65300000000001,9.0,0.0,0.0,0.0,0.0,48.0,1.0,0.0,0.0,1.0,0.0,56.52622946268678,3.1716780304409156,211.27833704135645
E-42,"1,4-diethylbenzene","InChI=1S/C10H14/c1-3-9-5-7-10(4-2)8-6-9/h5-8H,3-4H2,1-2H3",DSNHSQKRULAAEI-UHFFFAOYSA-N,CCc1ccc(CC)cc1,-3.75,0.0736980453502089,3,G5,134.22199999999998,2.811400000000001,45.19800000000003,10.0,0.0,0.0,0.0,2.0,54.0,1.0,0.0,0.0,1.0,0.0,62.89117157708339,2.797251262969787,160.69821324529929
E-43,p-isopropyltoluene,"InChI=1S/C10H14/c1-8(2)10-6-4-9(3)5-7-10/h4-8H,1-3H3",HFPZCAJZSCWRBC-UHFFFAOYSA-N,Cc1ccc(C(C)C)cc1,-3.77,0.0057,2,G3,134.22199999999995,3.118420000000002,45.26800000000003,10.0,0.0,0.0,0.0,1.0,54.0,1.0,0.0,0.0,1.0,0.0,62.89117157708339,2.8937627836066775,193.78322454351996
E-329,phenylacetic_acid,"InChI=1S/C8H8O2/c9-8(10)6-7-4-2-1-3-5-7/h1-5H,6H2,(H,9,10)",WLJVXDMOQOGPHL-UHFFFAOYSA-N,O=C(O)Cc1ccccc1,-0.89,0.0142264426773035,3,G5,136.14999999999998,1.3137,37.78180000000001,10.0,1.0,1.0,2.0,2.0,52.0,1.0,0.0,0.0,1.0,37.3,59.11704320052995,2.6742416022951265,215.9590174505521
E-373,diethyl_phthalate,"InChI=1S/C12H14O4/c1-3-15-11(13)9-7-5-6-8-10(9)12(14)16-4-2/h5-8H,3-4H2,1-2H3",FLKPEMZONWLCSK-UHFFFAOYSA-N,CCOC(=O)c1ccccc1C(=O)OCC,-2.35,0.0306606293978523,4,G5,222.23999999999995,2.04,58.35500000000003,16.0,4.0,0.0,4.0,4.0,86.0,1.0,0.0,0.0,1.0,52.60000000000001,94.17119046497793,2.9975148158911993,347.3600796599688
E-419,p-hydroxybenzoic_acid,"InChI=1S/C7H6O3/c8-6-3-1-5(2-4-6)7(9)10/h1-4,8H,(H,9,10)",FJKROLUGYXJWQN-UHFFFAOYSA-N,O=C(O)c1ccc(O)cc1,-1.41,0.0479504362998921,4,G5,138.122,1.0903999999999998,35.066100000000006,10.0,2.0,2.0,3.0,1.0,52.0,1.0,0.0,0.0,1.0,57.53,57.54633483832936,3.003400684579818,237.53306142431703
E-434,o-chlorobenzoic_acid,"InChI=1S/C7H5ClO2/c8-6-4-2-1-3-5(6)7(9)10/h1-4H,(H,9,10)",IKCLCGXPQILATA-UHFFFAOYSA-N,O=C(O)c1ccccc1Cl,-1.89,0.0840041797901879,3,G5,156.56799999999998,2.0382,38.41130000000001,10.0,1.0,1.0,3.0,1.0,52.0,1.0,0.0,0.0,1.0,37.3,63.055367313015026,3.1529414466808685,257.5379489264805
E-452,benzylamine,"InChI=1S/C7H9N/c8-6-7-4-2-1-3-5-7/h1-5H,6,8H2",WGQKYBSKWIADBV-UHFFFAOYSA-N,NCc1ccccc1,-1.53,1.25,2,G2,107.156,1.1453,34.33339999999999,8.0,1.0,1.0,1.0,1.0,42.0,1.0,0.0,0.0,1.0,26.02,49.13623593090629,2.8320858350070903,145.73281445033504
E-458,phenyl_hydrazine,"InChI=1S/C6H8N2/c7-8-6-4-2-1-3-5-6/h1-5,8H,7H2",HKOOXMFOFWEVGF-UHFFFAOYSA-N,NNc1ccccc1,0.07,0.0,1,G1,108.14399999999996,0.9722000000000002,34.25210000000001,8.0,2.0,2.0,2.0,1.0,42.0,1.0,0.0,0.0,1.0,38.05,48.2912920203527,2.8320858350070908,147.87452390041133
E-530,ephedrine,"InChI=1S/C10H15NO/c1-8(11-2)10(12)9-6-4-3-5-7-9/h3-8,10-12H,1-2H3",KWGRBVOPPLSCSI-UHFFFAOYSA-N,CNC(C)C(O)c1ccccc1,-0.42,0.0492160768674446,3,G5,165.23599999999996,1.3279,49.92350000000003,12.0,2.0,2.0,2.0,3.0,66.0,1.0,0.0,0.0,1.0,32.26,73.23526751288745,2.711040723233061,222.5400055614587
E-579,4-aminophenol,"InChI=1S/C6H7NO/c7-5-1-3-6(8)4-2-5/h1-4,8H,7H2",PLIKAWJENQZMHA-UHFFFAOYSA-N,Nc1ccc(O)cc1,-0.8,0.0168999999999999,2,G3,109.128,0.9744,32.519200000000005,8.0,2.0,2.0,2.0,0.0,42.0,1.0,0.0,0.0,1.0,46.25,47.56552756870569,3.0324555320336755,147.38833891467198