ID,Name,InChI,InChIKey,SMILES,Solubility,SD,Occurrences,Group,MolWt,MolLogP,MolMR,HeavyAtomCount,NumHAcceptors,NumHDonors,NumHeteroatoms,NumRotatableBonds,NumValenceElectrons,NumAromaticRings,NumSaturatedRings,NumAliphaticRings,RingCount,TPSA,LabuteASA,BalabanJ,BertzCT
A-4826,Neohesperidin dihydrochalone,"InChI=1S/C28H36O15/c1-11-21(34)23(36)25(38)27(40-11)43-26-24(37)22(35)19(10-29)42-28(26)41-13-8-16(32)20(17(33)9-13)14(30)5-3-12-4-6-18(39-2)15(31)7-12/h4,6-9,11,19,21-29,31-38H,3,5,10H2,1-2H3/t11-,19+,21-,22+,23+,24-,25+,26+,27-,28+/m0/s1",ITVGXXMINPYUHD-CUVHLRMHSA-N,COc1ccc(CCC(=O)c2c(O)cc(O[C@@H]3O[C@H](CO)[C@@H](O)[C@H](O)[C@H]3O[C@@H]3O[C@@H](C)[C@H](O)[C@@H](O)[C@H]3O)cc2O)cc1O,-3.1851035311,0.0,1,G1,612.5810000000002,-1.3420000000000003,142.69869999999997,43.0,15.0,9.0,15.0,10.0,238.0,2.0,2.0,2.0,4.0,245.28999999999996,245.1932608661905,1.5091044192508425,1247.7097770858577
B-959,quinamine,"InChI=1S/C19H24N2O2/c1-2-13-12-21-9-7-14(13)11-17(21)19-18(22,8-10-23-19)15-5-3-4-6-16(15)20-19/h2-6,13-14,17,20,22H,1,7-12H2/t13-,14-,17-,18+,19-/m0/s1",ALNKTVLUDWIWIH-HLQCWHFUSA-N,C=C[C@H]1CN2CC[C@H]1C[C@H]2[C@@]12Nc3ccccc3[C@]1(O)CCO2,-2.6706,0.0,1,G1,312.41300000000007,2.3127000000000004,89.03350000000005,23.0,4.0,2.0,4.0,2.0,122.0,1.0,4.0,5.0,6.0,44.73,136.680197795866,1.570266042750253,662.5246273909811
C-1984,l-dopa cyclohexyl ester,"InChI=1S/C15H21NO4/c16-12(8-10-6-7-13(17)14(18)9-10)15(19)20-11-4-2-1-3-5-11/h6-7,9,11-12,17-18H,1-5,8,16H2",YBJCMVKVPJXBGR-UHFFFAOYSA-N,NC(Cc1ccc(O)c(O)c1)C(=O)OC1CCCCC1,-1.27,0.0,1,G1,279.336,1.8435,74.41600000000004,20.0,5.0,3.0,5.0,4.0,110.0,1.0,1.0,1.0,2.0,92.78000000000002,117.91347652649262,1.8757021502168243,468.9413595963639
B-1846,"2h-purin-2-one, 1,3-dihydro-","InChI=1S/C5H4N4O/c10-5-6-1-3-4(9-5)8-2-7-3/h1-2H,(H2,6,7,8,9,10)",CRIZPXKICGBNKG-UHFFFAOYSA-N,O=c1ncc2[nH]cnc2[nH]1,-1.7136,0.0,1,G1,136.11399999999998,-0.3538,34.50940000000001,10.0,3.0,2.0,5.0,0.0,50.0,2.0,0.0,0.0,2.0,74.43,55.14269411512976,2.990320309898347,400.94019739120694
C-1972,"6-(2-hydroxyethyl)amino-7-methyl-3,7-dihydro-2h-purin-2-one","InChI=1S/C8H11N5O2/c1-13-4-10-7-5(13)6(9-2-3-14)11-8(15)12-7/h4,14H,2-3H2,1H3,(H2,9,11,12,15)",NRFNHVNHUCNPFW-UHFFFAOYSA-N,Cn1cnc2[nH]c(=O)nc(NCCO)c21,0.08,0.0,1,G1,209.209,-0.9392000000000004,54.70520000000001,15.0,6.0,3.0,7.0,3.0,80.0,2.0,0.0,0.0,2.0,95.83,84.79158788071898,2.58369277272513,529.3018175044356
B-1651,carmine,"InChI=1S/C22H20O13/c1-4-8-5(2-6(24)9(4)22(33)34)13(25)10-11(15(8)27)16(28)12(18(30)17(10)29)21-20(32)19(31)14(26)7(3-23)35-21/h2,7,14,19-21,23-24,26,28-32H,3H2,1H3,(H,33,34)",DGQLVPJVXFOQEV-UHFFFAOYSA-N,Cc1c(C(=O)O)c(O)cc2c1C(=O)c1c(O)c(C3OC(CO)C(O)C(O)C3O)c(O)c(O)c1C2=O,-2.5784,0.0,1,G1,492.3890000000002,-1.1940800000000005,110.82470000000002,35.0,12.0,9.0,13.0,3.0,186.0,2.0,1.0,2.0,4.0,242.50999999999996,194.87247146187087,1.9883907889748256,1295.4759243194198
C-2291,8-phenyltheophylline,"InChI=1S/C13H12N4O2/c1-16-11-9(12(18)17(2)13(16)19)14-10(15-11)8-6-4-3-5-7-8/h3-7H,1-2H3,(H,14,15)",PJFMAVHETLRJHJ-UHFFFAOYSA-N,Cn1c(=O)c2[nH]c(-c3ccccc3)nc2n(C)c1=O,-5.0,0.0,1,G1,256.26500000000004,0.6273,72.01170000000002,19.0,5.0,1.0,6.0,1.0,96.0,3.0,0.0,0.0,3.0,72.68,107.51113762322149,2.398129065855696,871.279987878917
C-2329,8-phenylcaffeine,"InChI=1S/C14H14N4O2/c1-16-10-12(17(2)14(20)18(3)13(10)19)15-11(16)9-7-5-4-6-8-9/h4-8H,1-3H3",MBYIBRUTNFFDFL-UHFFFAOYSA-N,Cn1c(=O)c2c(nc(-c3ccccc3)n2C)n(C)c1=O,-3.31,0.0,1,G1,270.29200000000003,0.6376999999999997,76.63200000000002,20.0,6.0,0.0,6.0,1.0,102.0,3.0,0.0,0.0,3.0,61.82,114.0860512242134,2.4876999391571606,916.2273914087924
B-1242,melibiose,"InChI=1S/C12H22O11/c13-1-3-5(14)8(17)10(19)12(23-3)21-2-4-6(15)7(16)9(18)11(20)22-4/h3-20H,1-2H2",DLRVVLDZNNYCBX-UHFFFAOYSA-N,OCC1OC(OCC2OC(O)C(O)C(O)C2O)C(O)C(O)C1O,0.4656,0.0,1,G1,342.297,-5.397199999999993,68.61940000000004,23.0,11.0,8.0,11.0,4.0,136.0,0.0,2.0,2.0,2.0,189.52999999999997,130.43645768522254,1.9398102917255935,380.0184383617949
B-2827,"pyrido[3,2-d]pyrimidin-4(1h)-one","InChI=1S/C7H5N3O/c11-7-6-5(9-4-10-7)2-1-3-8-6/h1-4H,(H,9,10,11)",FSKYZRCACCHDGR-UHFFFAOYSA-N,O=c1nc[nH]c2cccnc12,-2.0656,0.0,1,G1,147.13699999999994,0.3181,40.15870000000001,11.0,3.0,1.0,4.0,0.0,54.0,2.0,0.0,0.0,2.0,58.64,61.93353369411547,3.0307899009392414,429.3837739325197
A-5060,"13-ethyl-3-methoxy-6,7,11,12,13,14,15,16-octahydro-17H-cyclopenta[a]phenanthren-17-one (non-preferred name)","InChI=1S/C20H24O2/c1-3-20-11-10-16-15-7-5-14(22-2)12-13(15)4-6-17(16)18(20)8-9-19(20)21/h5,7,12,18H,3-4,6,8-11H2,1-2H3/t18-,20-/m0/s1",PFKPABPFEUSONI-ICSRJNTNSA-N,CC[C@]12CCC3=C(CCc4cc(OC)ccc43)[C@@H]1CCC2=O,-4.772922847,0.0,1,G1,296.4100000000001,4.564300000000004,87.92400000000005,22.0,2.0,0.0,2.0,2.0,116.0,1.0,1.0,3.0,4.0,26.3,132.10856355782818,1.8050107736496348,670.2848592810765
B-3569,phenanthrene,InChI=1S/C14H10/c1-3-7-13-11(5-1)9-10-12-6-2-4-8-14(12)13/h1-10H,YNPNZTXNASCQKK-UHFFFAOYSA-N,c1ccc2c(c1)ccc1ccccc12,-5.1903,0.0492027325347779,3,G5,178.23399999999998,3.993000000000002,61.45400000000003,14.0,0.0,0.0,0.0,0.0,66.0,3.0,0.0,0.0,3.0,0.0,82.79473218296738,2.610318687415942,539.0090985891403
B-3591,1-methylphenanthrene,"InChI=1S/C15H12/c1-11-5-4-8-15-13(11)10-9-12-6-2-3-7-14(12)15/h2-10H,1H3",DOWJXOHBNXRUOD-UHFFFAOYSA-N,Cc1cccc2c1ccc1ccccc12,-5.8541,0.0,1,G1,192.261,4.301420000000003,66.19100000000003,15.0,0.0,0.0,0.0,0.0,72.0,3.0,0.0,0.0,3.0,0.0,89.15967429736399,2.604862793652033,635.6567221133737
B-3593,2-methylphenanthrene,"InChI=1S/C15H12/c1-11-6-9-15-13(10-11)8-7-12-4-2-3-5-14(12)15/h2-10H,1H3",KANLOADZXMMCQA-UHFFFAOYSA-N,Cc1ccc2c(ccc3ccccc32)c1,-5.8367,0.0,1,G1,192.261,4.301420000000003,66.19100000000003,15.0,0.0,0.0,0.0,0.0,72.0,3.0,0.0,0.0,3.0,0.0,89.15967429736399,2.5458785187157504,635.6567221133737
F-257,"1,5-dihydropteridine-2,4,6-trione","InChI=1S/C6H4N4O3/c11-2-1-7-4-3(8-2)5(12)10-6(13)9-4/h1H,(H,8,11)(H2,7,9,10,12,13)",ICUZHLHSYKJAGS-UHFFFAOYSA-N,O=c1cnc2[nH]c(=O)[nH]c(=O)c2[nH]1,-3.13,0.0,1,G1,180.123,-1.7003000000000004,43.605099999999986,13.0,4.0,3.0,7.0,0.0,66.0,2.0,0.0,0.0,2.0,111.47,69.47622587514951,3.1242702639097737,619.7924608906916
A-1152,cobalt(2+) bis[3-(3-ethylcyclopentyl)propanoate],"InChI=1S/2C10H18O2.Co/c2*1-2-8-3-4-9(7-8)5-6-10(11)12;/h2*8-9H,2-7H2,1H3,(H,11,12);/q;;+2/p-2",XSWKLHINRKWMTD-UHFFFAOYSA-L,CCC1CCC(CCC(=O)[O-])C1.CCC1CCC(CCC(=O)[O-])C1.[Co+2],-3.1323831914,0.0,1,G1,397.4210000000002,2.6831000000000005,90.72600000000008,25.0,4.0,0.0,5.0,8.0,147.0,0.0,2.0,2.0,2.0,80.25999999999999,162.898865233778,4.430769113041424e-07,349.8924429504674
F-118,"4-(5-amino-1,3,4-oxadiazol-2-yl)phenol","InChI=1S/C8H7N3O2/c9-8-11-10-7(13-8)5-1-3-6(12)4-2-5/h1-4,12H,(H2,9,11)",IEQCJAQNEVFLQV-UHFFFAOYSA-N,Nc1nnc(-c2ccc(O)cc2)o1,-0.77,0.0,1,G1,177.16299999999998,1.0243999999999998,45.811200000000014,13.0,5.0,2.0,5.0,1.0,66.0,2.0,0.0,0.0,2.0,85.17,73.8247005691443,2.411915221174502,407.5824177083131
B-1585,heptachlor epoxide,"InChI=1S/C10H5Cl7O/c11-3-1-2(4-5(3)18-4)9(15)7(13)6(12)8(1,14)10(9,16)17/h1-5H",ZXFXBSWRVIQKOD-UHFFFAOYSA-N,ClC1=C(Cl)C2(Cl)C3C4OC4C(Cl)C3C1(Cl)C2(Cl)Cl,-6.2893,0.1264625460583313,3,G5,389.31999999999994,4.452700000000001,75.61900000000001,18.0,1.0,0.0,8.0,0.0,100.0,0.0,3.0,4.0,4.0,12.53,138.5472112287764,2.0104948353898764,476.45466329235546
B-2912,azacyclohexadecan-2-one,"InChI=1S/C15H29NO/c17-15-13-11-9-7-5-3-1-2-4-6-8-10-12-14-16-15/h1-14H2,(H,16,17)",NIMGTMNBWOVIHM-UHFFFAOYSA-N,O=C1CCCCCCCCCCCCCCN1,-2.8739999999999997,0.0,1,G1,239.4029999999999,4.187500000000003,73.03070000000005,17.0,1.0,1.0,2.0,0.0,100.0,0.0,1.0,1.0,1.0,29.1,106.55399375950468,2.1124110421554065,173.36084112383594
A-150,"disodium 4,4'-[(2,4-dihydroxy-1,3-phenylene)didiazene-2,1-diyl]dinaphthalene-1-sulfonate","InChI=1S/C26H18N4O8S2.2Na/c31-22-12-9-21(29-27-19-10-13-23(39(33,34)35)17-7-3-1-5-15(17)19)26(32)25(22)30-28-20-11-14-24(40(36,37)38)18-8-4-2-6-16(18)20;;/h1-14,27-28H,(H,33,34,35)(H,36,37,38);;/q;2*+1/p-2/b29-21+,30-25+;;",UTIACSXEVKXHPT-XALLQCHJSA-L,O=c1cc/c(=N\Nc2ccc(S(=O)(=O)[O-])c3ccccc23)c(=O)/c1=N/Nc1ccc(S(=O)(=O)[O-])c2ccccc12.[Na+].[Na+],-2.6038411441,0.0,1,G1,622.5480000000001,-4.739199999999995,143.54779999999985,42.0,12.0,2.0,16.0,6.0,202.0,5.0,0.0,0.0,5.0,197.31999999999996,282.1466774400944,2.4199974202278325e-06,2288.251258470501
A-228,"disodium 4-[(E)-2-[2,6-dihydroxy-3-(hydroxymethyl)-5-[(E)-2-(4-sulfonatonaphthalen-1-yl)diazen-1-yl]phenyl]diazen-1-yl]naphthalene-1-sulfonate","InChI=1S/C27H20N4O9S2.2Na/c32-14-15-13-22(30-28-20-9-11-23(41(35,36)37)18-7-3-1-5-16(18)20)27(34)25(26(15)33)31-29-21-10-12-24(42(38,39)40)19-8-4-2-6-17(19)21;;/h1-13,28-29,32H,14H2,(H,35,36,37)(H,38,39,40);;/q;2*+1/p-2/b30-22+,31-25+;;",TUQJHVRCALPCHU-CRVUNLCOSA-L,O=c1c(CO)c/c(=N\Nc2ccc(S(=O)(=O)[O-])c3ccccc23)c(=O)/c1=N/Nc1ccc(S(=O)(=O)[O-])c2ccccc12.[Na+].[Na+],-0.8171647444,0.0,1,G1,652.5740000000003,-5.246899999999993,149.47059999999985,44.0,13.0,3.0,17.0,7.0,214.0,5.0,0.0,0.0,5.0,217.55,293.3058533066869,2.6449970249534545e-06,2360.0060309389464
A-884,"2-ethoxy-2,6,6-trimethyl-9-methylidenebicyclo[3.3.1]nonane","InChI=1S/C15H26O/c1-6-16-15(5)10-8-12-11(2)13(15)7-9-14(12,3)4/h12-13H,2,6-10H2,1,3-5H3",LUNAXRIJWWBQTE-UHFFFAOYSA-N,C=C1C2CCC(C)(OCC)C1CCC2(C)C,-4.7342962454,0.0,1,G1,222.37199999999996,4.184000000000004,68.40000000000005,16.0,1.0,0.0,1.0,2.0,92.0,0.0,2.0,2.0,2.0,9.23,100.2607205196462,2.2262834953579964,291.8100768023833
C-805,2-chloro-3-phenylsulfonamidopyridine,"InChI=1S/C11H9ClN2O2S/c12-11-10(7-4-8-13-11)14-17(15,16)9-5-2-1-3-6-9/h1-8,14H",YWIHZYXECGNFTQ-UHFFFAOYSA-N,O=S(=O)(Nc1cccnc1Cl)c1ccccc1,-3.76,0.0,1,G1,268.72499999999997,2.535800000000001,66.49750000000002,17.0,3.0,1.0,6.0,3.0,88.0,2.0,0.0,0.0,2.0,59.06,104.32204960941232,2.3403650251403376,614.3783744504838
C-1003,n-(4-acetamidopyridin-3-yl)-4-nitrobenzenesulfonamide; 4-acetylamino-3-(4-nitrophenylsulfonamido)pyridine,"InChI=1S/C13H12N4O5S/c1-9(18)15-12-6-7-14-8-13(12)16-23(21,22)11-4-2-10(3-5-11)17(19)20/h2-8,16H,1H3,(H,14,15,18)",WFPVQUWLMGSJJX-UHFFFAOYSA-N,CC(=O)Nc1ccncc1NS(=O)(=O)c1ccc([N+](=O)[O-])cc1,-3.39,0.0,1,G1,336.32900000000006,1.7489999999999997,82.44560000000001,23.0,6.0,2.0,10.0,5.0,120.0,2.0,0.0,0.0,2.0,131.3,131.11302761747544,2.3124827283243476,848.9235299303641
F-481,4-Amino-N-(6-iodo-3-pyridinyl)benzenesulfonamide,"InChI=1S/C11H10IN3O2S/c12-11-6-3-9(7-14-11)15-18(16,17)10-4-1-8(13)2-5-10/h1-7,15H,13H2",FDHQEJALNMUUDH-UHFFFAOYSA-N,Nc1ccc(S(=O)(=O)Nc2ccc(I)nc2)cc1,-1.81,0.0,1,G1,375.191,2.0692,78.6169,18.0,4.0,2.0,7.0,3.0,94.0,2.0,0.0,0.0,2.0,85.08,118.620512200587,2.2671419224709672,638.9934722515916
B-1001,leucopterin,"InChI=1S/C6H5N5O3/c7-6-10-2-1(3(12)11-6)8-4(13)5(14)9-2/h(H,8,13)(H4,7,9,10,11,12,14)",SFLOGVVDXPCWGR-UHFFFAOYSA-N,Nc1nc(=O)c2[nH]c(=O)c(=O)[nH]c2[nH]1,-5.1655,0.0,1,G1,195.138,-2.1181000000000005,48.01749999999998,14.0,5.0,4.0,8.0,0.0,72.0,2.0,0.0,0.0,2.0,137.48999999999998,74.81611657216223,3.1145073823856793,663.4469161804845
A-6105,"1,1'-[iminobis(ethyleneiminoethylene)]bis[3-(octadecenyl)pyrrolidine-2,5-dione]","InChI=1S/C52H99N5O4/c1-3-5-7-9-11-13-15-17-19-21-23-25-27-29-31-33-35-47-45-49(58)56(51(47)60)43-41-54-39-37-53-38-40-55-42-44-57-50(59)46-48(52(57)61)36-34-32-30-28-26-24-22-20-18-16-14-12-10-8-6-4-2/h47-48,53-55H,3-46H2,1-2H3",AIXFPYDWKGOQNL-UHFFFAOYSA-N,CCCCCCCCCCCCCCCCCCC1CC(=O)N(CCNCCNCCNCCN2C(=O)CC(CCCCCCCCCCCCCCCCCC)C2=O)C1=O,-10.2347171749,0.0,1,G1,858.394999999999,11.808599999999988,256.58909999999884,61.0,7.0,3.0,9.0,46.0,356.0,0.0,2.0,2.0,2.0,110.85,376.15497884640376,1.3339091888245176,1005.999017377152
B-3068,dimepiperate,"InChI=1S/C15H21NOS/c1-15(2,13-9-5-3-6-10-13)18-14(17)16-11-7-4-8-12-16/h3,5-6,9-10H,4,7-8,11-12H2,1-2H3",BWUPSGJXXPATLU-UHFFFAOYSA-N,CC(C)(SC(=O)N1CCCCC1)c1ccccc1,-4.1196,0.0,1,G1,263.40599999999995,4.260800000000003,77.87900000000005,18.0,2.0,0.0,3.0,2.0,98.0,1.0,1.0,1.0,2.0,20.31,113.75451679114964,2.0093709878728685,396.21444538868275
B-1735,ketamine,"InChI=1S/C13H16ClNO.ClH/c1-15-13(9-5-4-8-12(13)16)10-6-2-3-7-11(10)14;/h2-3,6-7,15H,4-5,8-9H2,1H3;1H",VCMGMSHEPQENPE-UHFFFAOYSA-N,CNC1(c2ccccc2Cl)CCCCC1=O.[Cl-].[H+],-0.1369999999999999,0.0,1,G1,274.19100000000003,0.0143000000000006,66.77670000000003,17.0,2.0,1.0,4.0,2.0,94.0,1.0,1.0,1.0,2.0,29.1,114.63270889932244,1.444999709866727e-06,413.7326469484602
F-152,"2,8-Dihydroxyadenine","InChI=1S/C5H5N5O2/c6-2-1-3(9-4(11)7-1)10-5(12)8-2/h(H5,6,7,8,9,10,11,12)",XFBOJHLYDJZYSP-UHFFFAOYSA-N,Nc1[nH]c(=O)[nH]c2nc(=O)[nH]c1-2,-3.46,0.0,1,G1,167.128,-1.5267000000000004,40.86349999999998,12.0,4.0,4.0,7.0,0.0,62.0,0.0,0.0,2.0,2.0,120.42,64.99856146665066,2.969548295041432,491.48854406429615
A-1306,"2-ethyl-3-hydroxy-2-[2-(6-methoxy-3,4-dihydronaphthalen-1(2H)-ylidene)ethyl]cyclopentanone","InChI=1S/C20H26O3/c1-3-20(18(21)9-10-19(20)22)12-11-14-5-4-6-15-13-16(23-2)7-8-17(14)15/h7-8,11,13,18,21H,3-6,9-10,12H2,1-2H3",ZXYHLOFRRMDJAQ-UHFFFAOYSA-N,CCC1(CC=C2CCCc3cc(OC)ccc32)C(=O)CCC1O,-4.1227687236,0.0,1,G1,314.4250000000001,3.925200000000003,91.49780000000004,23.0,3.0,1.0,3.0,4.0,124.0,1.0,1.0,2.0,3.0,46.53,137.90862846355344,1.8836686658511983,631.7739987779305
C-772,testosterone  benzoate,"InChI=1S/C26H32O3/c1-25-14-12-19(27)16-18(25)8-9-20-21-10-11-23(26(21,2)15-13-22(20)25)29-24(28)17-6-4-3-5-7-17/h3-7,16,20-23H,8-15H2,1-2H3",RZJSCADWIWNGKI-UHFFFAOYSA-N,CC12CCC(=O)C=C1CCC1C2CCC2(C)C(OC(=O)c3ccccc3)CCC12,-4.48,0.0,1,G1,392.5390000000001,5.743900000000005,112.35550000000003,29.0,3.0,0.0,3.0,2.0,154.0,1.0,3.0,4.0,5.0,43.370000000000005,173.45390719072233,1.3660269079734393,855.9642320145714
C-2244,norethindrone benzoate,"InChI=1S/C27H30O3/c1-3-27(30-25(29)18-7-5-4-6-8-18)16-14-24-23-11-9-19-17-20(28)10-12-21(19)22(23)13-15-26(24,27)2/h1,4-8,17,21-24H,9-16H2,2H3",XIWMRZUMWWBVKW-UHFFFAOYSA-N,C#CC1(OC(=O)c2ccccc2)CCC2C3CCC4=CC(=O)CCC4C3CCC21C,-7.75,0.0,1,G1,402.5340000000001,5.357200000000005,115.51450000000006,30.0,3.0,0.0,3.0,2.0,156.0,1.0,3.0,4.0,5.0,43.370000000000005,178.8180746969782,1.4182110572668891,938.6049069104026
B-1976,"2,4,6-cycloheptatrien-1-one, 5-bromo-2-hydroxy-","InChI=1S/C7H5BrO2/c8-5-1-3-6(9)7(10)4-2-5/h1-4H,(H,9,10)",DAHLUZDNJJOKGS-UHFFFAOYSA-N,O=c1ccc(Br)ccc1O,-3.5629,0.0,1,G1,201.019,1.5148999999999997,42.07680000000001,10.0,2.0,1.0,3.0,0.0,52.0,1.0,0.0,0.0,1.0,37.3,66.26519413731032,3.4253455898726597,295.80075915911806
B-2084,"2,4,6-cycloheptatrien-1-one, 3-bromo-2-hydroxy-","InChI=1S/C7H5BrO2/c8-5-3-1-2-4-6(9)7(5)10/h1-4H,(H,9,10)",ZWZVMMDEDBKUEC-UHFFFAOYSA-N,O=c1ccccc(Br)c1O,-2.4352,0.0,1,G1,201.019,1.5148999999999997,42.07680000000001,10.0,2.0,1.0,3.0,0.0,52.0,1.0,0.0,0.0,1.0,37.3,66.26519413731032,3.5276549536297805,295.80075915911806
F-1120,"4,4a,8,8a-tetrahydro-[1,3]dioxino[4,5-e][1,3]dioxin-8-ylmethanol","InChI=1S/C7H12O5/c8-1-5-7-6(11-4-10-5)2-9-3-12-7/h5-8H,1-4H2",YSFJEZDRDFWOKZ-UHFFFAOYSA-N,OCC1OCOC2COCOC12,-0.62,0.0,1,G1,176.16799999999998,-0.9068999999999996,37.39080000000001,12.0,5.0,1.0,5.0,1.0,70.0,0.0,2.0,2.0,2.0,57.150000000000006,70.16565607737425,1.9866905078306745,141.97727418016194
B-3272,inabenfide,"InChI=1S/C19H15ClN2O2/c20-15-6-7-17(22-19(24)14-8-10-21-11-9-14)16(12-15)18(23)13-4-2-1-3-5-13/h1-12,18,23H,(H,22,24)",PFDCOZXELJAUTR-UHFFFAOYSA-N,O=C(Nc1ccc(Cl)cc1C(O)c1ccccc1)c1ccncc1,-5.5299,0.0,1,G1,338.79400000000004,4.069000000000003,94.146,24.0,3.0,2.0,5.0,4.0,120.0,3.0,0.0,0.0,3.0,62.22,144.3040080040942,1.927743211382768,838.5003414341286
B-1454,"1,3,5-triazin-2(1h)-one, 4,6-diamino-","InChI=1S/C3H5N5O/c4-1-6-2(5)8-3(9)7-1/h(H5,4,5,6,7,8,9)",MASBWURJQFFLOO-UHFFFAOYSA-N,Nc1nc(=O)nc(N)[nH]1,-3.2291,0.0,1,G1,127.107,-1.6707,31.477500000000003,9.0,5.0,3.0,6.0,0.0,48.0,1.0,0.0,0.0,1.0,110.68,49.9316505564057,3.332334626732985,241.9007718109345
B-1807,4-ethylamino-6-isopropylamino-s-triazin-2-ol,"InChI=1S/C8H15N5O/c1-4-9-6-11-7(10-5(2)3)13-8(14)12-6/h5H,4H2,1-3H3,(H3,9,10,11,12,13,14)",NFMIMWNQWAWNDW-UHFFFAOYSA-N,CCNc1nc(=O)nc(NC(C)C)[nH]1,-4.5241,0.0,1,G1,197.242,0.4169999999999994,55.57510000000002,14.0,5.0,3.0,6.0,4.0,78.0,1.0,0.0,0.0,1.0,82.69999999999999,82.17630410157938,2.8902051322153888,345.83002983390577
C-2515,2-chloro-4-[(4'-acetylpiperazin-1'-yl)carbonyl)ethenyl]phenyl  indol-5''-yl  sulfide,"InChI=1S/C23H22ClN3O2S/c1-16(28)26-10-12-27(13-11-26)23(29)7-3-17-2-6-22(20(24)14-17)30-19-4-5-21-18(15-19)8-9-25-21/h2-9,14-15,25H,10-13H2,1H3/b7-3+",SWIQOJQBTDWCRB-XVNBXDOJSA-N,CC(=O)N1CCN(C(=O)/C=C/c2ccc(Sc3ccc4[nH]ccc4c3)c(Cl)c2)CC1,-2.74,0.0,1,G1,439.9680000000001,4.676400000000004,121.7417,30.0,3.0,1.0,7.0,4.0,154.0,3.0,1.0,1.0,4.0,56.41,184.2374549149076,1.387496925207373,1116.588637106729
B-3277,bensulfuron-methyl (ph7),"InChI=1S/C16H18N4O7S/c1-25-12-8-13(26-2)18-15(17-12)19-16(22)20-28(23,24)9-10-6-4-5-7-11(10)14(21)27-3/h4-8H,9H2,1-3H3,(H2,17,18,19,20,22)",XMQFTWRPUQYINF-UHFFFAOYSA-N,COC(=O)c1ccccc1CS(=O)(=O)NC(=O)Nc1nc(OC)cc(OC)n1,-3.534,0.0,1,G1,410.4080000000002,0.9319,97.69570000000004,28.0,9.0,2.0,12.0,7.0,150.0,2.0,0.0,0.0,2.0,145.81,160.64162612207298,2.12781901544844,956.4580994504172
G-1024,Reverse Transcriptase inhibitor 1,"InChI=1S/C14H14N4O/c1-3-18-12-10(6-4-8-15-12)14(19)17(2)11-7-5-9-16-13(11)18/h4-9H,3H2,1-2H3",SVFKQHLOBRUZGV-UHFFFAOYSA-N,CCN1c2ncccc2C(=O)N(C)c2cccnc21,-2.62,0.0,1,G1,254.293,2.2245999999999997,73.88750000000003,19.0,4.0,0.0,5.0,1.0,96.0,2.0,0.0,1.0,3.0,49.330000000000005,111.06292003196174,2.314459898588003,640.8480202986965
G-1033,RTI 12,"InChI=1S/C14H13ClN4O/c1-3-19-12-9(5-4-8-16-12)14(20)18(2)10-6-7-11(15)17-13(10)19/h4-8H,3H2,1-2H3",YSEMEGXOKULCML-UHFFFAOYSA-N,CCN1c2ncccc2C(=O)N(C)c2ccc(Cl)nc21,-4.114,0.0,1,G1,288.73800000000006,2.878000000000001,78.89750000000004,20.0,4.0,0.0,6.0,1.0,102.0,2.0,0.0,1.0,3.0,49.330000000000005,121.3661862588434,2.32340388869338,688.6241630195814
G-1034,RTI 13,"InChI=1S/C15H13F3N4O/c1-3-22-12-9(5-4-6-19-12)14(23)21-11-10(15(16,17)18)7-8(2)20-13(11)22/h4-7H,3H2,1-2H3,(H,21,23)",KDDQDUIBYASSFC-UHFFFAOYSA-N,CCN1c2ncccc2C(=O)Nc2c(C(F)(F)F)cc(C)nc21,-4.207,0.0,1,G1,322.29,3.5275200000000018,78.84620000000002,23.0,4.0,1.0,8.0,1.0,120.0,2.0,0.0,1.0,3.0,58.120000000000005,129.71449686854172,2.331666499118501,788.776836165183
G-1035,RTI 15,"InChI=1S/C15H16N4O/c1-4-19-13-11(6-5-7-16-13)15(20)18-12-9(2)8-10(3)17-14(12)19/h5-8H,4H2,1-3H3,(H,18,20)",UDDMNBYVRLYNKY-UHFFFAOYSA-N,CCN1c2ncccc2C(=O)Nc2c(C)cc(C)nc21,-4.553999999999999,0.0,1,G1,268.32,2.817140000000001,78.58120000000002,20.0,4.0,1.0,5.0,1.0,102.0,2.0,0.0,1.0,3.0,58.120000000000005,117.217890659763,2.308414567885147,696.268023368677
G-1039,RTI 2,"InChI=1S/C15H16N4O/c1-3-18-12-8-6-10-17-14(12)19(4-2)13-11(15(18)20)7-5-9-16-13/h5-10H,3-4H2,1-2H3",ISMYLNZMKJLINI-UHFFFAOYSA-N,CCN1C(=O)c2cccnc2N(CC)c2ncccc21,-2.86,0.0,1,G1,268.32,2.614700000000001,78.50450000000004,20.0,4.0,0.0,5.0,2.0,102.0,2.0,0.0,1.0,3.0,49.330000000000005,117.42786214635834,2.3095431990005384,655.826702521381
G-1046,RTI 6,"InChI=1S/C16H19N5O2/c1-3-21-14-11(5-4-8-17-14)16(23)18-12-6-7-13(19-15(12)21)20(2)9-10-22/h4-8,22H,3,9-10H2,1-2H3,(H,18,23)",RSPPUQXSQYBMEE-UHFFFAOYSA-N,CCN1c2nc(N(C)CCO)ccc2NC(=O)c2cccnc21,-3.36,0.0,1,G1,313.36100000000005,1.6287999999999996,89.46300000000004,23.0,6.0,2.0,7.0,4.0,120.0,2.0,0.0,1.0,3.0,81.59000000000002,134.136900196559,2.1225544218446344,734.1605762946308
C-1400,indoprofen,"InChI=1S/C17H15NO3/c1-11(17(20)21)12-6-8-14(9-7-12)18-10-13-4-2-3-5-15(13)16(18)19/h2-9,11H,10H2,1H3,(H,20,21)",RJMIEHBSYVWVIN-UHFFFAOYSA-N,CC(C(=O)O)c1ccc(N2Cc3ccccc3C2=O)cc1,-4.72,0.0,1,G1,281.31100000000004,3.0351000000000017,79.44830000000005,21.0,2.0,1.0,4.0,3.0,106.0,2.0,0.0,1.0,3.0,57.61,122.18448836650174,1.8662912801910776,706.2300893568544
A-2334,2-(4-phenylbenzoyl)benzoic acid,"InChI=1S/C20H14O3/c21-19(17-8-4-5-9-18(17)20(22)23)16-12-10-15(11-13-16)14-6-2-1-3-7-14/h1-13H,(H,22,23)",NBYNVBRXIUUSIG-UHFFFAOYSA-N,O=C(O)c1ccccc1C(=O)c1ccc(-c2ccccc2)cc1,-4.8282334666,0.0,1,G1,302.329,4.282800000000003,88.71180000000003,23.0,2.0,1.0,3.0,4.0,112.0,3.0,0.0,0.0,3.0,54.37,133.3927537127018,1.940424929631592,849.5699680792155