ID,Name,InChI,InChIKey,SMILES,Solubility,SD,Occurrences,Group,MolWt,MolLogP,MolMR,HeavyAtomCount,NumHAcceptors,NumHDonors,NumHeteroatoms,NumRotatableBonds,NumValenceElectrons,NumAromaticRings,NumSaturatedRings,NumAliphaticRings,RingCount,TPSA,LabuteASA,BalabanJ,BertzCT
B-2185,"benzenepropanoic acid, .alpha.,.beta.-dihydroxy-","InChI=1S/C9H10O4/c10-7(8(11)9(12)13)6-4-2-1-3-5-6/h1-5,7-8,10-11H,(H,12,13)",BNOUUNAFHCJIJD-UHFFFAOYSA-N,O=C(O)C(O)C(O)c1ccccc1,-0.3063,0.0,1,G1,182.175,0.1654999999999999,45.044400000000024,13.0,3.0,3.0,4.0,3.0,70.0,1.0,0.0,0.0,1.0,77.75999999999999,75.0704528193186,2.792516902249824,282.92599275295936
B-2186,"hydrocinnamic acid, .alpha.-ethylidene-","InChI=1S/C11H12O2/c1-2-10(11(12)13)8-9-6-4-3-5-7-9/h2-7H,8H2,1H3,(H,12,13)",LUHNRLWMHQQYAM-UHFFFAOYSA-N,CC=C(Cc1ccccc1)C(=O)O,-2.5648,0.0,1,G1,176.21499999999995,2.26,51.53880000000002,13.0,1.0,1.0,2.0,3.0,68.0,1.0,0.0,0.0,1.0,37.3,77.52226651153553,2.7442885049353247,312.1219806834977
B-2202,5-oxo-3-phenyl-hexanoic acid,"InChI=1S/C12H14O3/c1-9(13)7-11(8-12(14)15)10-5-3-2-4-6-10/h2-6,11H,7-8H2,1H3,(H,14,15)",DUGWBMXFSCILOV-UHFFFAOYSA-N,CC(=O)CC(CC(=O)O)c1ccccc1,-1.4463,0.0,1,G1,206.241,2.224,56.73380000000003,15.0,2.0,1.0,3.0,5.0,80.0,1.0,0.0,0.0,1.0,54.37,88.73833375816017,2.8051070560609115,327.144681354708
B-2203,"benzenamine, n-ethyl-n,2,4,6-tetranitro-","InChI=1S/C8H7N5O8/c1-2-9(13(20)21)8-6(11(16)17)3-5(10(14)15)4-7(8)12(18)19/h3-4H,2H2,1H3",AWOPOGMEMRZDQH-UHFFFAOYSA-N,CCN(c1c([N+](=O)[O-])cc([N+](=O)[O-])cc1[N+](=O)[O-])[N+](=O)[O-],-3.7007,0.0,1,G1,301.171,1.4292000000000002,66.41959999999999,21.0,8.0,0.0,13.0,6.0,112.0,1.0,0.0,0.0,1.0,175.79999999999998,114.5031599287277,3.805066044386881,608.5496610902835
B-2206,"phthalic acid, bis(2,2,2-trinitroethyl) ester","InChI=1S/C12H8N6O16/c19-9(33-5-11(13(21)22,14(23)24)15(25)26)7-3-1-2-4-8(7)10(20)34-6-12(16(27)28,17(29)30)18(31)32/h1-4H,5-6H2",KPHWKKRARXZEEU-UHFFFAOYSA-N,O=C(OCC([N+](=O)[O-])([N+](=O)[O-])[N+](=O)[O-])c1ccccc1C(=O)OCC([N+](=O)[O-])([N+](=O)[O-])[N+](=O)[O-],-3.5782,0.0,1,G1,492.22200000000026,-1.0319999999999991,94.43540000000004,34.0,16.0,0.0,22.0,12.0,182.0,1.0,0.0,0.0,1.0,311.43999999999994,182.08904479997673,3.227915937645579,942.6303908031318
B-2220,"benzenesulfonamide, 3-amino-4-methyl-","InChI=1S/C7H10N2O2S/c1-5-2-3-6(4-7(5)8)12(9,10)11/h2-4H,8H2,1H3,(H2,9,10,11)",HCZDHXMDYWZPPN-UHFFFAOYSA-N,Cc1ccc(S(N)(=O)=O)cc1N,-1.9169,0.0,1,G1,186.236,0.2246200000000004,46.96460000000001,12.0,3.0,2.0,5.0,1.0,66.0,1.0,0.0,0.0,1.0,86.18,71.23690252033408,3.327295999016508,397.8674448467726
B-2228,"urea, 1-methyl-1-p-tolyl-","InChI=1S/C9H12N2O/c1-7-3-5-8(6-4-7)11(2)9(10)12/h3-6H,1-2H3,(H2,10,12)",JPJWFNHMOPQSBQ-UHFFFAOYSA-N,Cc1ccc(N(C)C(N)=O)cc1,-0.423,0.0,1,G1,164.20799999999997,1.5099200000000002,49.16540000000002,12.0,1.0,1.0,3.0,1.0,64.0,1.0,0.0,0.0,1.0,46.33,71.78747592994664,2.8925610901856844,279.0849389236156
B-2230,"benzamide, 4-(aminosulfonyl)-","InChI=1S/C7H8N2O3S/c8-7(10)5-1-3-6(4-2-5)13(9,11)12/h1-4H,(H2,8,10)(H2,9,11,12)",MWFFIRCXGDGFQB-UHFFFAOYSA-N,NC(=O)c1ccc(S(N)(=O)=O)cc1,-2.3015,0.0,1,G1,200.2189999999999,-0.5670999999999999,46.33310000000001,13.0,3.0,2.0,6.0,2.0,70.0,1.0,0.0,0.0,1.0,103.25,75.39842462037784,3.15526874357476,421.55580625159087
B-2234,"benzoic acid, 4-bromo-3-nitro-","InChI=1S/C7H4BrNO4/c8-5-2-1-4(7(10)11)3-6(5)9(12)13/h1-3H,(H,10,11)",RVCTZJVBWNFYRU-UHFFFAOYSA-N,O=C(O)c1ccc(Br)c([N+](=O)[O-])c1,-2.9677,0.0,1,G1,246.016,2.0555000000000003,47.7557,13.0,3.0,1.0,6.0,2.0,68.0,1.0,0.0,0.0,1.0,80.44,81.27262441427452,3.267052212361691,376.7553335743196
B-2238,"1,2-benzenedicarboxamide, n,n,n',n'-tetramethyl-","InChI=1S/C12H16N2O2/c1-13(2)11(15)9-7-5-6-8-10(9)12(16)14(3)4/h5-8H,1-4H3",ZUMRZCLVLLRVIF-UHFFFAOYSA-N,CN(C)C(=O)c1ccccc1C(=O)N(C)C,0.5083,0.0,1,G1,220.27199999999996,1.0902,62.47700000000003,16.0,2.0,0.0,4.0,2.0,86.0,1.0,0.0,0.0,1.0,40.620000000000005,95.46376734637089,3.202977813407694,372.2347167860317
B-2239,"acetic acid, [2-methoxy-4-(2-propenyl)phenoxy]-","InChI=1S/C12H14O4/c1-3-4-9-5-6-10(11(7-9)15-2)16-8-12(13)14/h3,5-7H,1,4,8H2,2H3,(H,13,14)/p-1",FQBPCNCFOCPCJP-UHFFFAOYSA-M,C=CCc1ccc(OCC(=O)[O-])c(OC)c1,-2.2786,0.0,1,G1,221.23199999999997,0.5523999999999998,57.397000000000034,16.0,4.0,0.0,4.0,6.0,86.0,1.0,0.0,0.0,1.0,58.59,94.11429908494593,2.8333575016344072,384.6051921578053
B-2242,cloxyfonac,"InChI=1S/C9H9ClO4/c10-7-1-2-8(6(3-7)4-11)14-5-9(12)13/h1-3,11H,4-5H2,(H,12,13)",ZJRUTGDCLVIVRD-UHFFFAOYSA-N,O=C(O)COc1ccc(Cl)cc1CO,-2.0347,0.0,1,G1,216.62,1.2957,50.505600000000015,14.0,3.0,2.0,5.0,4.0,76.0,1.0,0.0,0.0,1.0,66.75999999999999,85.69303052351115,2.7963995377402164,337.58388104417253
B-2243,allyxycarb [bsi:iso],"InChI=1S/C16H22N2O2/c1-6-8-18(9-7-2)15-12(3)10-14(11-13(15)4)20-16(19)17-5/h6-7,10-11H,1-2,8-9H2,3-5H3,(H,17,19)",FBEHFRAORPEGFH-UHFFFAOYSA-N,C=CCN(CC=C)c1c(C)cc(OC(=O)NC)cc1C,-3.5932,0.0,1,G1,274.364,3.200040000000002,83.60670000000005,20.0,3.0,1.0,4.0,6.0,108.0,1.0,0.0,0.0,1.0,41.57,120.2863813824566,3.1168573771592083,476.1934907424936
B-2250,"benzoic acid, 4-hydroxy-, pentyl ester","InChI=1S/C12H16O3/c1-2-3-4-9-15-12(14)10-5-7-11(13)8-6-10/h5-8,13H,2-4,9H2,1H3",ZNSSPLQZSUWFJT-UHFFFAOYSA-N,CCCCCOC(=O)c1ccc(O)cc1,-3.8135,0.0,1,G1,208.257,2.739200000000001,57.91430000000004,15.0,3.0,1.0,3.0,5.0,82.0,1.0,0.0,0.0,1.0,46.53,89.69035688762328,2.3674874478117127,303.1481998735926
B-2259,"1,2-benzenedicarboxylic acid, 3-nitro-, 2-methyl","InChI=1S/C9H7NO6/c1-16-9(13)7-5(8(11)12)3-2-4-6(7)10(14)15/h2-4H,1H3,(H,11,12)",UTEQVEMDYYOJGM-UHFFFAOYSA-N,COC(=O)c1c(C(=O)O)cccc1[N+](=O)[O-],-2.0853,0.0,1,G1,225.156,1.0796,51.39520000000001,16.0,5.0,1.0,7.0,3.0,84.0,1.0,0.0,0.0,1.0,106.74,89.41002836697703,3.5280503370242933,434.81705661543685
B-2260,"phthalic acid, 3-nitro-, 2-propyl ester","InChI=1S/C11H11NO6/c1-6(2)18-11(15)7-4-3-5-8(12(16)17)9(7)10(13)14/h3-6H,1-2H3,(H,13,14)/p-1",UWMQVYAFMSNSPZ-UHFFFAOYSA-M,CC(C)OC(=O)c1cccc([N+](=O)[O-])c1C(=O)[O-],-2.3466,0.0,1,G1,252.20199999999997,0.5235,57.978400000000015,18.0,6.0,0.0,7.0,4.0,96.0,1.0,0.0,0.0,1.0,109.57000000000002,102.13991259577024,3.3558070907926667,508.2549435635343
B-2261,"phthalic acid, 3-nitro-, 2-isopropyl ester","InChI=1S/C11H11NO6/c1-6(2)18-11(15)9-7(10(13)14)4-3-5-8(9)12(16)17/h3-6H,1-2H3,(H,13,14)/p-1",VLYOOXLMUKHFNY-UHFFFAOYSA-M,CC(C)OC(=O)c1c(C(=O)[O-])cccc1[N+](=O)[O-],-2.4897,0.0,1,G1,252.20199999999997,0.5235,57.978400000000015,18.0,6.0,0.0,7.0,4.0,96.0,1.0,0.0,0.0,1.0,109.57,102.13991259577024,3.4007866023848723,476.00494356353425
B-2262,"phthalic acid, 3-nitro-, 2-isobutyl ester","InChI=1S/C12H13NO6/c1-12(2,3)19-11(16)7-5-4-6-8(13(17)18)9(7)10(14)15/h4-6H,1-3H3,(H,14,15)/p-1",ITMRQGQCULJEJR-UHFFFAOYSA-M,CC(C)(C)OC(=O)c1cccc([N+](=O)[O-])c1C(=O)[O-],-3.0467,0.0,1,G1,266.229,0.9136,62.59540000000002,19.0,6.0,0.0,7.0,3.0,102.0,1.0,0.0,0.0,1.0,109.57000000000002,108.50485471016684,3.3581764069780213,543.6408568296293
B-2263,"phthalic acid, 3-nitro-, isopentyl ester","InChI=1S/C13H15NO6/c1-8(2)6-7-20-13(17)9-4-3-5-10(14(18)19)11(9)12(15)16/h3-5,8H,6-7H2,1-2H3,(H,15,16)/p-1",WDTZUHJWPOQOFX-UHFFFAOYSA-M,CC(C)CCOC(=O)c1cccc([N+](=O)[O-])c1C(=O)[O-],-3.0689,0.0,1,G1,280.25600000000003,1.1612000000000002,67.16440000000001,20.0,6.0,0.0,7.0,6.0,108.0,1.0,0.0,0.0,1.0,109.57000000000002,114.86979682456344,3.050581702679916,537.6629604955889
B-2264,"phosphinic acid, mesityl-","InChI=1S/C9H13O2P/c1-6-4-7(2)9(12(10)11)8(3)5-6/h4-5,12H,1-3H3,(H,10,11)",URXMWXKQTQWZQB-UHFFFAOYSA-N,Cc1cc(C)c([PH](=O)O)c(C)c1,-2.7896,0.0,1,G1,184.175,1.70416,51.50730000000003,12.0,1.0,1.0,3.0,1.0,66.0,1.0,0.0,0.0,1.0,37.3,73.11183829360755,3.3798143363005275,308.29557464185643
B-2268,"phthalic acid, 3-nitro-, 2-butyl ester","InChI=1S/C12H13NO6/c1-3-7(2)19-12(16)8-5-4-6-9(13(17)18)10(8)11(14)15/h4-7H,3H2,1-2H3,(H,14,15)/p-1",FMPUSJAPIITOEY-UHFFFAOYSA-M,CCC(C)OC(=O)c1cccc([N+](=O)[O-])c1C(=O)[O-],-2.7193,0.0,1,G1,266.229,0.9136,62.59540000000002,19.0,6.0,0.0,7.0,5.0,102.0,1.0,0.0,0.0,1.0,109.57000000000002,108.50485471016684,3.2747860972054355,524.950935167277
B-2275,"acetamide, n,n'-(phenylmethylene)bis-","InChI=1S/C11H14N2O2/c1-8(14)12-11(13-9(2)15)10-6-4-3-5-7-10/h3-7,11H,1-2H3,(H,12,14)(H,13,15)",JFUUKHUKGAQKIW-UHFFFAOYSA-N,CC(=O)NC(NC(C)=O)c1ccccc1,-1.3144,0.0,1,G1,206.245,0.9573999999999998,56.81640000000003,15.0,2.0,2.0,4.0,3.0,80.0,1.0,0.0,0.0,1.0,58.2,88.67888225878363,2.8051070560609115,332.8653710605151
B-2278,"benzene, 1,2,4,5-tetrachloro-3-methoxy-","InChI=1S/C7H4Cl4O/c1-12-7-5(10)3(8)2-4(9)6(7)11/h2H,1H3",WMMFIDNWZNCBCT-UHFFFAOYSA-N,COc1c(Cl)c(Cl)cc(Cl)c1Cl,-5.1307,0.0,1,G1,245.92,4.308800000000001,53.03400000000001,12.0,1.0,0.0,5.0,1.0,66.0,1.0,0.0,0.0,1.0,9.23,90.12295537092712,3.4193747159826637,284.5149525073721
B-2281,"1,3-propanediol, monobenzoate","InChI=1S/C10H12O3/c11-7-4-8-13-10(12)9-5-2-1-3-6-9/h1-3,5-6,11H,4,7-8H2",BZISNWGGPWSXTK-UHFFFAOYSA-N,O=C(OCCCO)c1ccccc1,-1.2558,0.0,1,G1,180.203,1.2258,48.42730000000003,13.0,3.0,1.0,3.0,4.0,70.0,1.0,0.0,0.0,1.0,46.53,76.96047265883006,2.404796656306514,256.1321851658414
B-2287,"benzene, 1-bromo-2-(1-methylethyl)-","InChI=1S/C9H11Br/c1-7(2)8-5-3-4-6-9(8)10/h3-7H,1-2H3",LECYCYNAEJDSIL-UHFFFAOYSA-N,CC(C)c1ccccc1Br,-4.1898,0.0,1,G1,199.09099999999995,3.5725000000000025,48.23100000000002,10.0,0.0,0.0,1.0,1.0,54.0,1.0,0.0,0.0,1.0,0.0,70.39377706832813,3.0313278985819716,215.7231804794128
B-2290,4-chloro-5-methyl-2-nitrophenol,"InChI=1S/C7H6ClNO3/c1-4-2-7(10)6(9(11)12)3-5(4)8/h2-3,10H,1H3",JBMGJOKJUYGIJH-UHFFFAOYSA-N,Cc1cc(O)c([N+](=O)[O-])cc1Cl,-4.3901,0.0,1,G1,187.582,2.262220000000001,44.508200000000016,12.0,3.0,1.0,5.0,1.0,64.0,1.0,0.0,0.0,1.0,63.37,73.54682093547106,3.3258841466405986,337.66852769827057
B-2292,"acetamide, n-acetyl-n-(4-ethoxyphenyl)-","InChI=1S/C12H15NO3/c1-4-16-12-7-5-11(6-8-12)13(9(2)14)10(3)15/h5-8H,4H2,1-3H3",QGKJDERCEAREGO-UHFFFAOYSA-N,CCOc1ccc(N(C(C)=O)C(C)=O)cc1,-1.947,0.0,1,G1,221.25599999999991,1.9846999999999997,61.452000000000034,16.0,3.0,0.0,4.0,3.0,86.0,1.0,0.0,0.0,1.0,46.61,94.8174789056744,2.9416477109022083,369.75527574751527
B-2296,"chloramben, methyl ester","InChI=1S/C8H7Cl2NO2/c1-13-8(12)5-2-4(9)3-6(11)7(5)10/h2-3H,11H2,1H3",DTSSCQVCVYZGSI-UHFFFAOYSA-N,COC(=O)c1cc(Cl)cc(N)c1Cl,-3.2634,0.0,1,G1,220.055,2.3622,52.21390000000001,13.0,3.0,1.0,5.0,1.0,70.0,1.0,0.0,0.0,1.0,52.32,85.38277782861687,3.2784430773089346,352.2424177353703
B-2306,"benzenamine, n-ethyl-2,4,6-trinitro-","InChI=1S/C8H8N4O6/c1-2-9-8-6(11(15)16)3-5(10(13)14)4-7(8)12(17)18/h3-4,9H,2H2,1H3",JRLUWLIIVKSPPT-UHFFFAOYSA-N,CCNc1c([N+](=O)[O-])cc([N+](=O)[O-])cc1[N+](=O)[O-],-3.4085,0.0,1,G1,256.174,1.843,60.5689,18.0,7.0,1.0,10.0,5.0,96.0,1.0,0.0,0.0,1.0,141.45000000000002,99.6700766993976,3.590909965755676,493.31362494430095
B-2312,"acetic acid, [2-methoxy-4-(1-propenyl)phenoxy]-","InChI=1S/C12H14O4/c1-3-4-9-5-6-10(11(7-9)15-2)16-8-12(13)14/h3-7H,8H2,1-2H3,(H,13,14)/p-1/b4-3+",UORQJKKOBXSGRG-ONEGZZNKSA-M,C/C=C/c1ccc(OCC(=O)[O-])c(OC)c1,-1.5826,0.0,1,G1,221.2319999999999,0.857,58.20400000000003,16.0,4.0,0.0,4.0,5.0,86.0,1.0,0.0,0.0,1.0,58.59,94.11429908494593,2.879385348205376,396.00527574751527
B-2314,"benzenemethanol, 3,4,5-trichloro-","InChI=1S/C7H5Cl3O/c8-5-1-4(3-11)2-6(9)7(5)10/h1-2,11H,3H2",HZKGTRUEBFRMNO-UHFFFAOYSA-N,OCc1cc(Cl)c(Cl)c(Cl)c1,-3.0948,0.0,1,G1,211.475,3.139100000000001,47.39480000000002,11.0,1.0,1.0,4.0,1.0,60.0,1.0,0.0,0.0,1.0,20.23,79.50037766673461,3.2055654495767256,249.38335062299743
B-2318,phenylethanolamine,"InChI=1S/C8H11NO/c9-6-8(10)7-4-2-1-3-5-7/h1-5,8,10H,6,9H2",ULSIYEODSMZIPX-UHFFFAOYSA-N,NCC(O)c1ccccc1,-0.4764,0.0,1,G1,137.182,0.6787000000000001,40.456200000000024,10.0,2.0,2.0,2.0,2.0,54.0,1.0,0.0,0.0,1.0,46.25,60.2954117974989,2.746978188530898,185.70889642965705
B-2327,crotoxyphos,"InChI=1S/C14H19O6P/c1-11(20-21(16,17-3)18-4)10-14(15)19-12(2)13-8-6-5-7-9-13/h5-10,12H,1-4H3/b11-10+",XXXSILNSXNPGKG-ZHACJKMWSA-N,COP(=O)(OC)O/C(C)=C/C(=O)OC(C)c1ccccc1,-2.4973,0.0,1,G1,314.274,3.6121000000000025,77.41550000000004,21.0,6.0,0.0,7.0,7.0,116.0,1.0,0.0,0.0,1.0,71.06,123.82665069503196,2.636640599406943,531.6550310610563
B-2329,pretilchlor,"InChI=1S/C17H26ClNO2/c1-4-11-21-12-10-19(16(20)13-18)17-14(5-2)8-7-9-15(17)6-3/h7-9H,4-6,10-13H2,1-3H3",YLPGTOIOYRQOHV-UHFFFAOYSA-N,CCCOCCN(C(=O)CCl)c1c(CC)cccc1CC,-3.795,0.0,1,G1,311.85300000000007,3.8098000000000023,89.38100000000006,21.0,2.0,0.0,4.0,9.0,118.0,1.0,0.0,0.0,1.0,29.54,132.78393360449536,3.0405929299275014,426.1662903460974
B-2354,"l-tyrosine, n-acetyl-3,5-dibromo-","InChI=1S/C11H11Br2NO4/c1-5(15)14-9(11(17)18)4-6-2-7(12)10(16)8(13)3-6/h2-3,9,16H,4H2,1H3,(H,14,15)(H,17,18)/t9-/m0/s1",FNGNLZLLBCYMOG-VIFPVBQESA-N,CC(=O)N[C@@H](Cc1cc(Br)c(O)c(Br)c1)C(=O)O,-2.1830000000000003,0.0,1,G1,381.02,2.049,72.4513,18.0,3.0,3.0,7.0,4.0,98.0,1.0,0.0,0.0,1.0,86.63,120.45258279085031,2.9383045162851213,466.9267111313547
B-2358,"benzenamine, 2-bromo-5-nitro-","InChI=1S/C6H5BrN2O2/c7-5-2-1-4(9(10)11)3-6(5)8/h1-3H,8H2",BAAUCXCLMDAZEL-UHFFFAOYSA-N,Nc1cc([N+](=O)[O-])ccc1Br,-3.5583,0.0,1,G1,217.022,1.9395,45.2088,11.0,3.0,1.0,5.0,1.0,58.0,1.0,0.0,0.0,1.0,69.16,71.29181714465084,3.1515496683060507,300.6337992264624
B-2360,mcpb-ethyl,"InChI=1S/C13H17ClO3/c1-3-16-13(15)5-4-8-17-12-7-6-11(14)9-10(12)2/h6-7,9H,3-5,8H2,1-2H3",XNKARWLGLZGMGX-UHFFFAOYSA-N,CCOC(=O)CCCOc1ccc(Cl)cc1C,-4.4095,0.0,1,G1,256.729,3.3705200000000017,67.55100000000004,17.0,3.0,0.0,4.0,6.0,94.0,1.0,0.0,0.0,1.0,35.53,106.67787670621242,2.287026248481329,376.9273661561467
B-2363,"phenol, 2,3,4,6-tetrachloro-5-methyl-","InChI=1S/C7H4Cl4O/c1-2-3(8)5(10)6(11)7(12)4(2)9/h12H,1H3",ZGWPUIZMCCUZOK-UHFFFAOYSA-N,Cc1c(Cl)c(O)c(Cl)c(Cl)c1Cl,-4.6021,0.0,1,G1,245.92,4.314220000000001,52.88380000000001,12.0,1.0,1.0,5.0,0.0,66.0,1.0,0.0,0.0,1.0,20.23,89.80364389361625,3.603567451474547,229.6711557967681
B-2366,nitrothal-isopropyl,"InChI=1S/C14H17NO6/c1-8(2)20-13(16)10-5-11(14(17)21-9(3)4)7-12(6-10)15(18)19/h5-9H,1-4H3",VJAWBEFMCIINFU-UHFFFAOYSA-N,CC(C)OC(=O)c1cc(C(=O)OC(C)C)cc([N+](=O)[O-])c1,-5.0389,0.42055,2,G3,295.291,2.725200000000001,74.19940000000003,21.0,6.0,0.0,7.0,5.0,114.0,1.0,0.0,0.0,1.0,95.74,121.5540504162709,3.2022208266076486,524.3327019069318
B-2372,landrin,"InChI=1S/C11H15NO2/c1-7-5-8(2)9(3)10(6-7)14-11(13)12-4/h5-6H,1-4H3,(H,12,13)",NYOKZHDTNBDPOB-UHFFFAOYSA-N,CNC(=O)Oc1cc(C)cc(C)c1C,-1.9851,0.0,1,G1,193.246,2.3300600000000005,55.73670000000003,14.0,2.0,1.0,3.0,1.0,76.0,1.0,0.0,0.0,1.0,38.33,84.08104320463868,3.017829316638997,358.5503185287034
B-2376,"benzoic acid, 5-acetyl-2-hydroxy-","InChI=1S/C9H8O4/c1-5(10)6-2-3-8(11)7(4-6)9(12)13/h2-4,11H,1H3,(H,12,13)/p-1",NZRDKNBIPVLNHA-UHFFFAOYSA-M,CC(=O)c1ccc(O)c(C(=O)[O-])c1,-2.2304,0.0,1,G1,179.15099999999995,-0.0417,42.441800000000015,13.0,4.0,1.0,4.0,2.0,68.0,1.0,0.0,0.0,1.0,77.43,74.43774116716635,3.267052212361691,367.877493015742
B-2379,"1,4-benzenedicarboxamide, n,n,n',n'-tetramethyl-","InChI=1S/C12H16N2O2/c1-13(2)11(15)9-5-7-10(8-6-9)12(16)14(3)4/h5-8H,1-4H3",MKIKJJUYURBXJT-UHFFFAOYSA-N,CN(C)C(=O)c1ccc(C(=O)N(C)C)cc1,0.2656,0.0,1,G1,220.27199999999996,1.0902,62.47700000000003,16.0,2.0,0.0,4.0,2.0,86.0,1.0,0.0,0.0,1.0,40.620000000000005,95.46376734637089,2.915649014726069,354.9847167860317
B-2387,kitazine,"InChI=1S/C11H17O3PS/c1-3-13-15(12,14-4-2)16-10-11-8-6-5-7-9-11/h5-9H,3-4,10H2,1-2H3",XFMJUIKWKVJNDY-UHFFFAOYSA-N,CCOP(=O)(OCC)SCc1ccccc1,-2.4155,0.0,1,G1,260.295,4.100900000000003,68.59550000000004,16.0,4.0,0.0,5.0,7.0,90.0,1.0,0.0,0.0,1.0,35.53,100.8178392153254,2.532491116196993,332.3427285988528
B-2394,"l-cysteine, n-acetyl-s-(3,4-dichlorophenyl)-","InChI=1S/C11H11Cl2NO3S/c1-6(15)14-10(11(16)17)5-18-7-2-3-8(12)9(13)4-7/h2-4,10H,5H2,1H3,(H,14,15)(H,16,17)/t10-/m0/s1",JYWAYDDGOPHFIS-JTQLQIEISA-N,CC(=O)N[C@@H](CSc1ccc(Cl)c(Cl)c1)C(=O)O,-2.8868,0.0,1,G1,308.18600000000004,2.6748000000000003,72.42650000000003,18.0,3.0,2.0,7.0,5.0,98.0,1.0,0.0,0.0,1.0,66.4,118.65289630650015,2.6351654961459827,467.6015890889479
B-2411,azidamfenicol,"InChI=1S/C11H13N5O5/c12-15-13-5-10(18)14-9(6-17)11(19)7-1-3-8(4-2-7)16(20)21/h1-4,9,11,17,19H,5-6H2,(H,14,18)/t9-,11-/m1/s1",SGRUZFCHLOFYHZ-MWLCHTKSSA-N,[N-]=[N+]=NCC(=O)N[C@H](CO)[C@H](O)c1ccc([N+](=O)[O-])cc1,-1.1692,0.0,1,G1,295.25500000000005,0.4155999999999996,71.08570000000002,21.0,6.0,3.0,10.0,7.0,112.0,1.0,0.0,0.0,1.0,161.45999999999998,118.34266322079844,2.7737126497727234,554.6273045683447
B-2432,"1,3-benzenedicarboxamide, n,n,n',n'-tetramethyl-","InChI=1S/C12H16N2O2/c1-13(2)11(15)9-6-5-7-10(8-9)12(16)14(3)4/h5-8H,1-4H3",SVWDHNLFFDIWHM-UHFFFAOYSA-N,CN(C)C(=O)c1cccc(C(=O)N(C)C)c1,0.487,0.0,1,G1,220.27199999999996,1.0902,62.47700000000003,16.0,2.0,0.0,4.0,2.0,86.0,1.0,0.0,0.0,1.0,40.620000000000005,95.46376734637089,3.0453910962535975,375.9847167860317
B-2434,ethyl 4-chlorophenoxyacetate,"InChI=1S/C10H11ClO3/c1-2-13-10(12)7-14-9-5-3-8(11)4-6-9/h3-6H,2,7H2,1H3",QULRDJFRGVHKLN-UHFFFAOYSA-N,CCOC(=O)COc1ccc(Cl)cc1,-2.4206,0.0,1,G1,214.648,2.2819000000000003,53.58000000000003,14.0,3.0,0.0,4.0,4.0,76.0,1.0,0.0,0.0,1.0,35.53,87.5830503630226,2.379180758892864,294.7403499173812
B-2435,chlorfenprop methyl,"InChI=1S/C10H10Cl2O2/c1-14-10(13)9(12)6-7-2-4-8(11)5-3-7/h2-5,9H,6H2,1H3",YJKIALIXRCSISK-UHFFFAOYSA-N,COC(=O)C(Cl)Cc1ccc(Cl)cc1,-3.7655,0.0,1,G1,233.094,2.6629000000000005,56.813000000000024,14.0,2.0,0.0,4.0,3.0,76.0,1.0,0.0,0.0,1.0,26.3,92.7727713603974,2.601411312406869,308.402966410215
B-2438,"benzamide, 2-(2-propenyloxy)-","InChI=1S/C10H11NO2/c1-2-7-13-9-6-4-3-5-8(9)10(11)12/h2-6H,1,7H2,(H2,11,12)",FZEIWORKISALCO-UHFFFAOYSA-N,C=CCOc1ccccc1C(N)=O,-2.2273,0.0,1,G1,177.20299999999995,1.3503,50.65190000000001,13.0,2.0,1.0,3.0,4.0,68.0,1.0,0.0,0.0,1.0,52.32000000000001,76.81652657146249,2.90309759651014,320.4557138372428
B-2446,"dl-phenylalanine, n-(2-cyanoethyl)-","InChI=1S/C12H14N2O2/c13-7-4-8-14-11(12(15)16)9-10-5-2-1-3-6-10/h1-3,5-6,11,14H,4,8-9H2,(H,15,16)/t11-/m0/s1",RDEPSYXOVXRWGR-NSHDSACASA-N,N#CCC[NH2+][C@@H](Cc1ccccc1)C(=O)[O-],-1.4939,0.0,1,G1,218.25599999999997,-1.1753199999999993,55.96340000000003,16.0,3.0,1.0,4.0,6.0,84.0,1.0,0.0,0.0,1.0,80.53,94.51925352319316,2.5206951904685395,370.35519215780533
B-2448,"l-tyrosine, 3,5-dichloro-","InChI=1S/C9H9Cl2NO3/c10-5-1-4(2-6(11)8(5)13)3-7(12)9(14)15/h1-2,7,13H,3,12H2,(H,14,15)",MPHURJQUHZHALJ-UHFFFAOYSA-N,NC(Cc1cc(Cl)c(O)c(Cl)c1)C(=O)O,-1.7546,0.0,1,G1,250.081,1.6533999999999998,57.44200000000001,15.0,3.0,3.0,6.0,3.0,82.0,1.0,0.0,0.0,1.0,83.55000000000001,96.22264221789864,2.9237270307423464,371.9390010832792
B-2449,"glutaric acid, 3-hydroxy-3-(phenylcarbamoyl)-","InChI=1S/C12H13NO6/c14-9(15)6-12(19,7-10(16)17)11(18)13-8-4-2-1-3-5-8/h1-5,19H,6-7H2,(H,13,18)(H,14,15)(H,16,17)",XIQLELWZTXRHIC-UHFFFAOYSA-N,O=C(O)CC(O)(CC(=O)O)C(=O)Nc1ccccc1,-0.4874,0.0,1,G1,267.237,0.3055999999999997,64.52710000000002,19.0,4.0,4.0,7.0,6.0,102.0,1.0,0.0,0.0,1.0,123.93,108.038185546204,2.879041176282545,468.2527922971799
B-2450,"benzoic acid, 4-hydroxy-3-iodo-, methyl ester","InChI=1S/C8H7IO3/c1-12-8(11)5-2-3-7(10)6(9)4-5/h2-4,10H,1H3",PXNOLLHARLSLHY-UHFFFAOYSA-N,COC(=O)c1ccc(O)c(I)c1,-3.3138,0.0,1,G1,278.04499999999996,1.7834,52.16330000000002,12.0,3.0,1.0,4.0,1.0,64.0,1.0,0.0,0.0,1.0,46.53,83.49242655108048,3.0455637915397915,309.1713244639388
B-2451,"benzoic acid, 4-hydroxy-3-iodo-, ethyl ester","InChI=1S/C9H9IO3/c1-2-13-9(12)6-3-4-8(11)7(10)5-6/h3-5,11H,2H2,1H3",HOAXKZYYZXASLJ-UHFFFAOYSA-N,CCOC(=O)c1ccc(O)c(I)c1,-3.4924,0.0,1,G1,292.072,2.1735,56.780300000000025,13.0,3.0,1.0,4.0,2.0,70.0,1.0,0.0,0.0,1.0,46.53,89.85736866547707,2.9029492111309567,322.63589476880867
B-2452,"benzoic acid, 4-hydroxy-3-iodo-, propyl ester","InChI=1S/C10H11IO3/c1-2-5-14-10(13)7-3-4-9(12)8(11)6-7/h3-4,6,12H,2,5H2,1H3",GEFATVANQYOXLC-UHFFFAOYSA-N,CCCOC(=O)c1ccc(O)c(I)c1,-3.6865,0.0,1,G1,306.09899999999993,2.563600000000001,61.39730000000003,14.0,3.0,1.0,4.0,3.0,76.0,1.0,0.0,0.0,1.0,46.53,96.22231077987368,2.7556196098727357,336.13903760611623