ID,Name,InChI,InChIKey,SMILES,Solubility,SD,Occurrences,Group,MolWt,MolLogP,MolMR,HeavyAtomCount,NumHAcceptors,NumHDonors,NumHeteroatoms,NumRotatableBonds,NumValenceElectrons,NumAromaticRings,NumSaturatedRings,NumAliphaticRings,RingCount,TPSA,LabuteASA,BalabanJ,BertzCT
F-868,"2-(phenylamino)-3,7-dihydropurin-6-one","InChI=1S/C11H9N5O/c17-10-8-9(13-6-12-8)15-11(16-10)14-7-4-2-1-3-5-7/h1-6H,(H3,12,13,14,15,16,17)",JDCULXHGRMPCAM-UHFFFAOYSA-N,O=c1[nH]c(Nc2ccccc2)nc2[nH]cnc12,-4.12,0.0,1,G1,227.227,1.3898,64.23410000000003,17.0,4.0,3.0,6.0,2.0,84.0,3.0,0.0,0.0,3.0,86.46000000000001,95.74965050480182,2.038136589187471,700.4585772179908
F-1079,9-allyl-2-anilino-purin-6-ol,"InChI=1S/C14H13N5O/c1-2-8-19-9-15-11-12(19)17-14(18-13(11)20)16-10-6-4-3-5-7-10/h2-7,9H,1,8H2,(H2,16,17,18,20)",XNNTZLFLHGTMNW-UHFFFAOYSA-N,C=CCn1cnc2c(=O)[nH]c(Nc3ccccc3)nc21,-5.09,0.0,1,G1,267.29200000000003,2.0491999999999995,78.07040000000002,20.0,5.0,2.0,6.0,4.0,100.0,3.0,0.0,0.0,3.0,75.6,114.36484530240276,2.057859349143011,803.2923691878725
A-115,"disodium 5-methyl-2-({4-[(4-methyl-2-sulfonatophenyl)amino]-9,10-dioxo-9,10-dihydroanthracen-1-yl}amino)benzene-1-sulfonate","InChI=1S/C28H22N2O8S2.2Na/c1-15-7-9-19(23(13-15)39(33,34)35)29-21-11-12-22(30-20-10-8-16(2)14-24(20)40(36,37)38)26-25(21)27(31)17-5-3-4-6-18(17)28(26)32;;/h3-14,29-30H,1-2H3,(H,33,34,35)(H,36,37,38);;/q;2*+1/p-2",FPAYXBWMYIMERV-UHFFFAOYSA-L,Cc1ccc(Nc2ccc(Nc3ccc(C)cc3S(=O)(=O)[O-])c3c2C(=O)c2ccccc2C3=O)c(S(=O)(=O)[O-])c1.[Na+].[Na+],-1.4270312571,0.0,1,G1,622.5880000000003,-1.6177599999999943,144.59879999999987,42.0,10.0,2.0,14.0,6.0,204.0,4.0,0.0,1.0,5.0,172.59999999999997,286.563462874555,2.419997657277347e-06,1836.5953336473772
A-177,"sodium 3-{[9,10-dioxo-4-({2,4,6-trimethyl-3-[(sodiooxy)sulfonyl]phenyl}amino)-9,10-dihydroanthracen-1-yl]amino}-2,4,6-trimethylbenzene-1-sulfonate","InChI=1S/C32H30N2O8S2.2Na/c1-15-13-17(3)31(43(37,38)39)19(5)27(15)33-23-11-12-24(26-25(23)29(35)21-9-7-8-10-22(21)30(26)36)34-28-16(2)14-18(4)32(20(28)6)44(40,41)42;;/h7-14,33-34H,1-6H3,(H,37,38,39)(H,40,41,42);;/q;2*+1/p-2",UHXQPQCJDDSMCB-UHFFFAOYSA-L,Cc1cc(C)c(S(=O)(=O)[O-])c(C)c1Nc1ccc(Nc2c(C)cc(C)c(S(=O)(=O)[O-])c2C)c2c1C(=O)c1ccccc1C2=O.[Na+].[Na+],-1.7922611704,0.0,1,G1,678.6960000000004,-0.3840799999999942,163.5467999999997,46.0,10.0,2.0,14.0,6.0,228.0,4.0,0.0,1.0,5.0,172.59999999999997,312.02323133214145,2.879996750903783e-06,2027.6636029946455
A-1827,"3-({9,10-dioxo-4-[(2,4,6-trimethyl-3-sulfophenyl)amino]-9,10-dihydroanthracen-1-yl}amino)-2,4,6-trimethylbenzene-1-sulfonic acid; hexane-1,6-diamine","InChI=1S/C32H30N2O8S2.C6H16N2/c1-15-13-17(3)31(43(37,38)39)19(5)27(15)33-23-11-12-24(26-25(23)29(35)21-9-7-8-10-22(21)30(26)36)34-28-16(2)14-18(4)32(20(28)6)44(40,41)42;7-5-3-1-2-4-6-8/h7-14,33-34H,1-6H3,(H,37,38,39)(H,40,41,42);1-8H2",PAGCKSAVALMKPU-UHFFFAOYSA-N,Cc1cc(C)c(S(=O)(=O)O)c(C)c1Nc1ccc(Nc2c(C)cc(C)c(S(=O)(=O)O)c2C)c2c1C(=O)c1ccccc1C2=O.NCCCCCCN,-2.8206093768,0.0,1,G1,750.9399999999997,6.757320000000006,203.8263999999996,52.0,10.0,6.0,14.0,11.0,278.0,4.0,0.0,1.0,5.0,218.98,305.07169732065177,6.774998137741544e-07,2125.5380419663966
A-5520,"1,4-bis[(2,6-diethyl-4-methylphenyl)amino]-9,10-dihydroanthracene-9,10-dione","InChI=1S/C36H38N2O2/c1-7-23-17-21(5)18-24(8-2)33(23)37-29-15-16-30(38-34-25(9-3)19-22(6)20-26(34)10-4)32-31(29)35(39)27-13-11-12-14-28(27)36(32)40/h11-20,37-38H,7-10H2,1-6H3",IBABXJRXGSAJLQ-UHFFFAOYSA-N,CCc1cc(C)cc(CC)c1Nc1ccc(Nc2c(CC)cc(C)cc2CC)c2c1C(=O)c1ccccc1C2=O,-7.423828912,0.0,1,G1,530.7120000000003,8.815640000000002,166.1843999999996,40.0,4.0,2.0,4.0,8.0,204.0,4.0,0.0,1.0,5.0,58.2,237.3989285242228,1.7267974697135808,1475.6093544423609
A-5521,"1,4-bis[(2-ethyl-6-methylphenyl)amino]-9,10-dihydroanthracene-9,10-dione","InChI=1S/C32H30N2O2/c1-5-21-13-9-11-19(3)29(21)33-25-17-18-26(34-30-20(4)12-10-14-22(30)6-2)28-27(25)31(35)23-15-7-8-16-24(23)32(28)36/h7-18,33-34H,5-6H2,1-4H3",NPJJGMRERPXCSE-UHFFFAOYSA-N,CCc1cccc(C)c1Nc1ccc(Nc2c(C)cccc2CC)c2c1C(=O)c1ccccc1C2=O,-7.3753013985,0.0,1,G1,474.6040000000002,7.690840000000007,147.42839999999984,36.0,4.0,2.0,4.0,6.0,180.0,4.0,0.0,1.0,5.0,58.2,211.93916006663633,1.7164355149469694,1403.5807491587923
A-5627,"1,4-bis[(2,4,6-trimethylphenyl)amino]-9,10-dihydroanthracene-9,10-dione","InChI=1S/C32H30N2O2/c1-17-13-19(3)29(20(4)14-17)33-25-11-12-26(34-30-21(5)15-18(2)16-22(30)6)28-27(25)31(35)23-9-7-8-10-24(23)32(28)36/h7-16,33-34H,1-6H3",DMDRBXCDTZRMHZ-UHFFFAOYSA-N,Cc1cc(C)c(Nc2ccc(Nc3c(C)cc(C)cc3C)c3c2C(=O)c2ccccc2C3=O)c(C)c1,-7.8250730454,0.0,1,G1,474.6040000000003,7.799720000000007,147.6203999999998,36.0,4.0,2.0,4.0,4.0,180.0,4.0,0.0,1.0,5.0,58.2,211.9391600666363,1.7108089843940566,1416.07489010455
A-307,"cobalt(3+) ion 9-(2-carboxyphenyl)-6-(diethylamino)-N,N-diethyl-3H-xanthen-3-iminium bis(3-methyl-4-[(E)-2-(2-oxido-5-{[3-(propan-2-yloxy)propyl]sulfamoyl}phenyl)diazen-1-yl]-1-phenyl-1H-pyrazol-5-olate)","InChI=1S/C28H30N2O3.2C22H27N5O5S.Co/c1-5-29(6-2)19-13-15-23-25(17-19)33-26-18-20(30(7-3)8-4)14-16-24(26)27(23)21-11-9-10-12-22(21)28(31)32;2*1-15(2)32-13-7-12-23-33(30,31)18-10-11-20(28)19(14-18)24-25-21-16(3)26-27(22(21)29)17-8-5-4-6-9-17;/h9-18H,5-8H2,1-4H3;2*4-6,8-11,14-15,23,28-29H,7,12-13H2,1-3H3;/q;;;+3/p-3",WUVJFYRTCZOXAH-UHFFFAOYSA-K,CCN(CC)c1ccc2c(-c3ccccc3C(=O)O)c3ccc(N(CC)CC)cc3[o+]c2c1.Cc1nn(-c2ccccc2)c([O-])c1N=Nc1cc(S(=O)(=O)NCCCOC(C)C)ccc1[O-].Cc1nn(-c2ccccc2)c([O-])c1N=Nc1cc(S(=O)(=O)NCCCOC(C)C)ccc1[O-].[Co+3],-3.2357622441000005,0.0258059252000002,2,G3,1445.578,12.595639999999984,375.0533000000013,100.0,21.0,3.0,28.0,28.0,528.0,10.0,0.0,0.0,10.0,343.2,592.3333202844581,2.096268605594414e-07,4439.279827992281
A-1879,"6-ethoxy-2,2,4-trimethyl-1,2-dihydroquinoline","InChI=1S/C14H19NO/c1-5-16-11-6-7-13-12(8-11)10(2)9-14(3,4)15-13/h6-9,15H,5H2,1-4H3",DECIPOUIJURFOJ-UHFFFAOYSA-N,CCOc1ccc2c(c1)C(C)=CC(C)(C)N2,-3.332762335,0.1741387773002963,4,G5,217.312,3.692700000000002,68.96370000000003,16.0,2.0,1.0,2.0,2.0,86.0,1.0,0.0,1.0,2.0,21.26,97.31891326207126,2.4152699754678197,432.36152386019273
A-2538,"1,2-Dihydro-2,2,4-trimethylquinoline, oligomers","InChI=1S/C12H15N/c1-9-8-12(2,3)13-11-7-5-4-6-10(9)11/h4-8,13H,1-3H3",ZNRLMGFXSPUZNR-UHFFFAOYSA-N,CC1=CC(C)(C)Nc2ccccc21,-5.238695803500001,0.47214287463337,4,G5,173.259,3.294000000000002,57.794700000000034,13.0,1.0,1.0,1.0,0.0,68.0,1.0,0.0,1.0,2.0,12.03,79.47548380377118,2.54974883069777,361.1421555222323
B-2182,"5-thiazolecarboxylic acid, 2-[[(4-aminophenyl)su","InChI=1S/C10H9N3O4S2/c11-6-1-3-7(4-2-6)19(16,17)13-10-12-5-8(18-10)9(14)15/h1-5H,11H2,(H,12,13)(H,14,15)",UVWBGXXTQBAIOZ-UHFFFAOYSA-N,Nc1ccc(S(=O)(=O)Nc2ncc(C(=O)O)s2)cc1,-2.8741,0.0,1,G1,299.333,1.2243000000000002,70.73620000000001,19.0,6.0,3.0,9.0,4.0,100.0,2.0,0.0,0.0,2.0,122.38,112.31973531659122,2.252455337795675,706.6309248626102
B-4476,sulfathiozole,"InChI=1S/C9H9N3O2S2/c10-7-1-3-8(4-2-7)16(13,14)12-9-11-5-6-15-9/h1-6H,10H2,(H,11,12)",JNMRHUJNCSQMMB-UHFFFAOYSA-N,Nc1ccc(S(=O)(=O)Nc2nccs2)cc1,-2.4248,0.3530133232613183,5,G5,255.324,1.5261,63.77690000000001,16.0,5.0,2.0,7.0,3.0,84.0,2.0,0.0,0.0,2.0,85.08,96.99903734995482,2.2889130817194454,561.3113832440436
C-2334,2-(n4-acetyl)sulfathiazole,"InChI=1S/C11H11N3O3S2/c1-8(15)13-9-2-4-10(5-3-9)19(16,17)14-11-12-6-7-18-11/h2-7H,1H3,(H,12,14)(H,13,15)",KXNXWINFSDKMHD-UHFFFAOYSA-N,CC(=O)Nc1ccc(S(=O)(=O)Nc2nccs2)cc1,-3.43,0.0,1,G1,297.361,1.9023,73.66820000000003,19.0,5.0,2.0,8.0,4.0,100.0,2.0,0.0,0.0,2.0,88.16,114.10041516538712,2.187980036757728,663.7207902219536
F-568,"N-[4-[(4-methyl-1,3-thiazol-2-yl)sulfamoyl]phenyl]acetamide","InChI=1S/C12H13N3O3S2/c1-8-7-19-12(13-8)15-20(17,18)11-5-3-10(4-6-11)14-9(2)16/h3-7H,1-2H3,(H,13,15)(H,14,16)",UTTXCVWQZVYQRZ-UHFFFAOYSA-N,CC(=O)Nc1ccc(S(=O)(=O)Nc2nc(C)cs2)cc1,-4.15,0.0,1,G1,311.388,2.21072,78.40520000000002,20.0,5.0,2.0,8.0,4.0,106.0,2.0,0.0,0.0,2.0,88.16,120.46535727978372,2.187893752522556,720.6607514647217
F-678,"Ethyl (2-{[(4-aminophenyl)sulfonyl]amino}-4-methyl-1,3-thiazol-5-yl)acetate","InChI=1S/C14H17N3O4S2/c1-3-21-13(18)8-12-9(2)16-14(22-12)17-23(19,20)11-6-4-10(15)5-7-11/h4-7H,3,8,15H2,1-2H3,(H,16,17)",BCUDENMQYSKCLW-UHFFFAOYSA-N,CCOC(=O)Cc1sc(NS(=O)(=O)c2ccc(N)cc2)nc1C,-2.88,0.0,1,G1,355.44100000000003,1.94012,88.85090000000002,23.0,7.0,2.0,9.0,6.0,124.0,2.0,0.0,0.0,2.0,111.37999999999998,138.09881525148853,2.167068100392494,797.929914022029
F-969,"4-amino-N-(4-methyl-1,3-thiazol-2-yl)benzenesulfonamide","InChI=1S/C10H11N3O2S2/c1-7-6-16-10(12-7)13-17(14,15)9-4-2-8(11)3-5-9/h2-6H,11H2,1H3,(H,12,13)",KJVQYDYPDFFJMP-UHFFFAOYSA-N,Cc1csc(NS(=O)(=O)c2ccc(N)cc2)n1,-2.91,0.5575140237399115,3,G4,269.351,1.83452,68.5139,17.0,5.0,2.0,7.0,3.0,90.0,2.0,0.0,0.0,2.0,85.08,103.36397946435146,2.2767262836744524,617.255496856432
C-2060,"n,n-(dicyclohexyl)acetamido  benzoate;  analog 29","InChI=1S/C21H29NO3/c23-20(16-25-21(24)17-10-4-1-5-11-17)22(18-12-6-2-7-13-18)19-14-8-3-9-15-19/h1,4-5,10-11,18-19H,2-3,6-9,12-16H2",XDEYTBJLAPSTGO-UHFFFAOYSA-N,O=C(OCC(=O)N(C1CCCCC1)C1CCCCC1)c1ccccc1,-5.06,0.0,1,G1,343.4670000000002,4.337400000000004,97.31650000000008,25.0,3.0,0.0,4.0,5.0,136.0,1.0,2.0,2.0,3.0,46.61000000000001,150.0902956281854,1.6229690309440277,541.7637108167737
B-2620,anisomycin,"InChI=1S/C14H19NO4/c1-9(16)19-14-12(15-8-13(14)17)7-10-3-5-11(18-2)6-4-10/h3-6,12-15,17H,7-8H2,1-2H3/t12-,13+,14+/m0/s1",YKJYKKNCCRKFSL-BFHYXJOUSA-N,COc1ccc(C[C@@H]2NC[C@@H](O)[C@@H]2OC(C)=O)cc1,-1.6075,0.0,1,G1,265.30899999999997,0.5020999999999994,70.04950000000004,19.0,5.0,2.0,5.0,4.0,104.0,1.0,1.0,1.0,2.0,67.78999999999999,112.07781737600222,2.0154233929330507,431.57703411778425
A-2913,C.i. Direct blue 80,"InChI=1S/C32H22N4O16S4.2Cu.4Na/c37-25-11-15(1-7-23(25)33-35-29-21-5-3-19(53(41,42)43)9-17(21)13-27(31(29)39)55(47,48)49)16-2-8-24(26(38)12-16)34-36-30-22-6-4-20(54(44,45)46)10-18(22)14-28(32(30)40)56(50,51)52;;;;;;/h1-14,37-40H,(H,41,42,43)(H,44,45,46)(H,47,48,49)(H,50,51,52);;;;;;/q;2*+2;4*+1/p-8",FTGXCLZZPPMCHU-UHFFFAOYSA-F,O=S(=O)([O-])c1ccc2c(N=Nc3ccc(-c4ccc(N=Nc5c([O-])c(S(=O)(=O)[O-])cc6cc(S(=O)(=O)[O-])ccc56)c([O-])c4)cc3[O-])c([O-])c(S(=O)(=O)[O-])cc2c1.[Cu+2].[Cu+2].[Na+].[Na+].[Na+].[Na+],-1.6074287478,0.0,1,G1,1057.7960000000005,-9.587400000000018,177.76279999999983,62.0,20.0,0.0,30.0,9.0,308.0,6.0,0.0,0.0,6.0,370.48,461.39588857437326,6.201662432591865e-06,3007.718125128665
G-1132,triforine,"InChI=1S/C10H10Cl6N4O2/c11-9(12,13)7(17-5-21)19-1-2-20(4-3-19)8(18-6-22)10(14,15)16/h1-8H,(H,17,21)(H,18,22)",XEOXEBNPBKUGJH-UHFFFAOYSA-N,O=CNC(N1C=CN(C(NC=O)C(Cl)(Cl)Cl)C=C1)C(Cl)(Cl)Cl,-4.19,0.0,1,G1,430.9340000000001,2.431,88.51339999999999,22.0,4.0,2.0,12.0,6.0,124.0,0.0,0.0,1.0,1.0,64.68,156.40072610850171,2.8999036751471916,407.3135531615821
B-708,"2,2'-dithiobisbenzothiazole",InChI=1S/C14H8N2S4/c1-3-7-11-9(5-1)15-13(17-11)19-20-14-16-10-6-2-4-8-12(10)18-14/h1-8H,AFZSMODLJJCVPP-UHFFFAOYSA-N,c1ccc2sc(SSc3nc4ccccc4s3)nc2c1,-4.5218,1.2798582353913686,4,G4,332.50000000000006,5.705400000000002,90.954,20.0,6.0,0.0,6.0,3.0,98.0,4.0,0.0,0.0,4.0,25.78,131.21803102882754,1.5677796561680746,740.7970847579146
F-1129,"N,N-diethyl-2-(9H-[1,2,4]triazino[6,5-b]indol-3-ylsulfanyl)ethanamine","InChI=1S/C15H19N5S/c1-3-20(4-2)9-10-21-15-17-13-11-7-5-6-8-12(11)16-14(13)18-19-15/h5-8H,3-4,9-10H2,1-2H3,(H,16,18)",QIVOPJNEUAMBDB-UHFFFAOYSA-N,CCN(CC)CCSc1nnc2[nH]c3ccccc3c2n1,-3.09,0.0,1,G1,301.41900000000004,2.9400000000000004,87.70170000000003,21.0,5.0,1.0,6.0,6.0,110.0,3.0,0.0,0.0,3.0,57.7,127.7038864971742,1.787488493608349,735.0910872727014
A-1944,sodium 4-(4-(2-hydroxynaphthalenylazo)phenylazo)benzenesulphonate,"InChI=1S/C22H16N4O4S.Na/c27-21-14-5-15-3-1-2-4-20(15)22(21)26-25-17-8-6-16(7-9-17)23-24-18-10-12-19(13-11-18)31(28,29)30;/h1-14,25H,(H,28,29,30);/q;+1/b24-23?,26-22-;",AXECONFFMZNCKN-SRZPWQCFSA-N,O=C1C=Cc2ccccc2/C1=N/Nc1ccc(N=Nc2ccc(S(=O)(=O)O)cc2)cc1.[Na+],-4.65844166,0.0,1,G1,455.4510000000002,1.7648000000000004,117.51730000000002,32.0,7.0,2.0,10.0,5.0,154.0,3.0,0.0,1.0,4.0,120.54999999999998,206.37558207048653,2.88999525665386e-06,1333.1036069941938
A-5818,"1,4-diamino-2,3-diphenoxy-9,10-dihydroanthracene-9,10-dione","InChI=1S/C26H18N2O4/c27-21-19-20(24(30)18-14-8-7-13-17(18)23(19)29)22(28)26(32-16-11-5-2-6-12-16)25(21)31-15-9-3-1-4-10-15/h1-14H,27-28H2",NZTGGRGGJFCKGG-UHFFFAOYSA-N,Nc1c(Oc2ccccc2)c(Oc2ccccc2)c(N)c2c1C(=O)c1ccccc1C2=O,-8.2716565948,0.0283099171484699,3,G5,422.4400000000002,5.211000000000004,121.60580000000004,32.0,6.0,2.0,6.0,4.0,156.0,4.0,0.0,1.0,5.0,104.64,183.55665486607975,1.7617061386059107,1260.4730148121669
A-1798,"2-(cyclohexylsulfanyl)-2,3-dihydro-1H-isoindole-1,3-dione","InChI=1S/C14H15NO2S/c16-13-11-8-4-5-9-12(11)14(17)15(13)18-10-6-2-1-3-7-10/h4-5,8-10H,1-3,6-7H2",UEZWYKZHXASYJN-UHFFFAOYSA-N,O=C1c2ccccc2C(=O)N1SC1CCCCC1,-4.3237941723,0.0,1,G1,261.346,3.2635000000000023,71.40600000000003,18.0,3.0,0.0,4.0,2.0,94.0,1.0,1.0,2.0,3.0,37.38,110.68064313389604,1.7886750299312109,459.32228816972435
A-4824,"[(2S,4R)-2-(2,4-dichlorophenyl)-2-(1H-1,2,4-triazol-1-ylmethyl)-1,3-dioxolan-4-yl]methanol","InChI=1S/C13H13Cl2N3O3/c14-9-1-2-11(12(15)3-9)13(6-18-8-16-7-17-18)20-5-10(4-19)21-13/h1-3,7-8,10,19H,4-6H2/t10-,13-/m1/s1",NKUOWQPBYUKRIM-ZWNOBZJWSA-N,OC[C@@H]1CO[C@@](Cn2cncn2)(c2ccc(Cl)cc2Cl)O1,-2.9059550684,0.0,1,G1,330.17100000000005,1.8455999999999997,76.07280000000003,21.0,6.0,1.0,8.0,4.0,112.0,2.0,1.0,1.0,3.0,69.4,130.76211484689532,1.994481785332032,623.1289753948723
B-3053,azaconazol,"InChI=1S/C12H11Cl2N3O2/c13-9-1-2-10(11(14)5-9)12(18-3-4-19-12)6-17-8-15-7-16-17/h1-2,5,7-8H,3-4,6H2",AKNQMEBLVAMSNZ-UHFFFAOYSA-N,Clc1ccc(C2(Cn3cncn3)OCCO2)c(Cl)c1,-3.0031,0.0,1,G1,300.1450000000001,2.484700000000001,70.06600000000002,19.0,5.0,0.0,7.0,3.0,100.0,2.0,1.0,1.0,3.0,49.17,119.60293898030268,1.9975368888501368,568.3584019815922
B-3054,propiconazole,"InChI=1S/C15H17Cl2N3O2/c1-2-3-12-7-21-15(22-12,8-20-10-18-9-19-20)13-5-4-11(16)6-14(13)17/h4-6,9-10,12H,2-3,7-8H2,1H3",STJLVHWMYQXCPB-UHFFFAOYSA-N,CCCC1COC(Cn2cncn2)(c2ccc(Cl)cc2Cl)O1,-3.4929,0.0,1,G1,342.2260000000001,3.653400000000003,83.89500000000004,22.0,5.0,0.0,7.0,5.0,118.0,2.0,1.0,1.0,3.0,49.17,138.6977653234925,1.9566237074360815,635.7227266811392
B-3055,"1-[[2-(2,4-dichlorophenyl)-4-ethyl-1,3-dioxolan-","InChI=1S/C14H15Cl2N3O2/c1-2-11-6-20-14(21-11,7-19-9-17-8-18-19)12-4-3-10(15)5-13(12)16/h3-5,8-9,11H,2,6-7H2,1H3",DWRKFAJEBUWTQM-UHFFFAOYSA-N,CCC1COC(Cn2cncn2)(c2ccc(Cl)cc2Cl)O1,-3.613,0.0,1,G1,328.19900000000007,3.263300000000002,79.27800000000003,21.0,5.0,0.0,7.0,4.0,112.0,2.0,1.0,1.0,3.0,49.17,132.3328232090959,1.994481785332032,620.6866103240635
F-1179,"(1,5,8a-trimethyl-2,8-dioxo-3a,4,5,5a,9,9a-hexahydro-1H-azuleno[6,5-b]furan-9-yl) acetate","InChI=1S/C17H22O5/c1-8-7-12-14(9(2)16(20)22-12)15(21-10(3)18)17(4)11(8)5-6-13(17)19/h5-6,8-9,11-12,14-15H,7H2,1-4H3",NEIIKBWBBCJSQU-UHFFFAOYSA-N,CC(=O)OC1C2C(CC(C)C3C=CC(=O)C31C)OC(=O)C2C,-2.19,0.0,1,G1,306.35800000000006,1.897,77.61300000000004,22.0,5.0,0.0,5.0,1.0,120.0,0.0,2.0,3.0,3.0,69.67000000000002,129.58288512454837,2.1014500359743433,565.3966058118002
A-421,Longifolene,"InChI=1S/C15H24/c1-10-11-6-7-12-13(11)14(2,3)8-5-9-15(10,12)4/h11-13H,1,5-9H2,2-4H3",PDSNLYSELAIEBU-UHFFFAOYSA-N,C=C1C2CCC3C2C(C)(C)CCCC13C,-4.412762427200001,0.0,1,G1,204.35699999999997,4.4150000000000045,64.58300000000004,15.0,0.0,0.0,0.0,0.0,84.0,0.0,3.0,3.0,3.0,0.0,94.14134413661012,2.097171261080974,312.0
A-3872,"4-methyl-3a,4,7,7a-tetrahydro-2-benzofuran-1,3-dione","InChI=1S/C9H10O3/c1-5-3-2-4-6-7(5)9(11)12-8(6)10/h2-3,5-7H,4H2,1H3",XPEKVUUBSDFMDR-UHFFFAOYSA-N,CC1C=CCC2C(=O)OC(=O)C12,-0.7362684615999999,0.0,1,G1,166.176,0.8982,41.000000000000014,12.0,3.0,0.0,3.0,0.0,64.0,0.0,1.0,2.0,2.0,43.370000000000005,70.3941120333541,2.323734961760993,266.94721312873537
A-3955,"1,2,3,6-tetrahydrophthalic anhydride","InChI=1S/C8H8O3/c9-7-5-3-1-2-4-6(5)8(10)11-7/h1-2,5-6H,3-4H2",KMOUUZVZFBCRAM-UHFFFAOYSA-N,O=C1OC(=O)C2CC=CCC12,-0.7139217719,0.0,1,G1,152.14899999999997,0.6521999999999999,36.453,11.0,3.0,0.0,3.0,0.0,58.0,0.0,1.0,2.0,2.0,43.370000000000005,64.02916991895749,2.275089056121243,217.72172564618367
A-4406,"5-methyl-3a,4,7,7a-tetrahydro-2-benzofuran-1,3-dione","InChI=1S/C9H10O3/c1-5-2-3-6-7(4-5)9(11)12-8(6)10/h2,6-7H,3-4H2,1H3",OEMSKMUAMXLNKL-UHFFFAOYSA-N,CC1=CCC2C(=O)OC(=O)C2C1,-1.0999943697,0.0,1,G1,166.176,1.0423,41.070000000000014,12.0,3.0,0.0,3.0,0.0,64.0,0.0,1.0,2.0,2.0,43.370000000000005,70.3941120333541,2.268028637257227,277.4982352109087
C-857,sulfamethoxypyridazine;  3-sulfa-6-methoxypyridazine,"InChI=1S/C11H12N4O3S/c1-18-11-7-6-10(13-14-11)15-19(16,17)9-4-2-8(12)3-5-9/h2-7H,12H2,1H3,(H,13,15)",VLYWMPOKSSWJAL-UHFFFAOYSA-N,COc1ccc(NS(=O)(=O)c2ccc(N)cc2)nn1,-2.68,0.6994070647500081,3,G4,280.30899999999997,0.8681999999999999,70.24690000000002,19.0,6.0,2.0,8.0,4.0,100.0,2.0,0.0,0.0,2.0,107.2,110.02526297279807,2.22609992235484,653.3445828576388
D-1860,"benzenesulfonamide, 4-amino-n-(6-ethoxy-3-pyrid-","InChI=1S/C12H14N4O3S/c1-2-19-12-8-7-11(14-15-12)16-20(17,18)10-5-3-9(13)4-6-10/h3-8H,2,13H2,1H3,(H,14,16)",FFJIWWBSBCOKLS-UHFFFAOYSA-N,CCOc1ccc(NS(=O)(=O)c2ccc(N)cc2)nn1,-2.427,0.0,1,G1,294.33599999999996,1.2582999999999998,74.86390000000002,20.0,6.0,2.0,8.0,5.0,106.0,2.0,0.0,0.0,2.0,107.2,116.39020508719469,2.1715590689884516,668.8535522428149
A-2380,3-methyl-7-propan-2-ylbicyclo[2.2.2]oct-3-ene-6-carbaldehyde,"InChI=1S/C13H20O/c1-8(2)12-6-10-5-11(7-14)13(12)4-9(10)3/h7-8,11-13H,4-6H2,1-3H3",BNAYNPKNDLTBTJ-UHFFFAOYSA-N,CC1=C2CC(C=O)C(C1)C(C(C)C)C2,-3.8508542835,0.0,1,G1,192.302,3.2039000000000017,57.923000000000044,14.0,1.0,0.0,1.0,2.0,78.0,0.0,1.0,3.0,3.0,17.07,86.57881316138989,2.2642118992424747,274.9601502903714
B-2485,"hydantoin, 5-methyl-5-(2-piperidinoethyl)-","InChI=1S/C11H19N3O2/c1-11(9(15)12-10(16)13-11)5-8-14-6-3-2-4-7-14/h2-8H2,1H3,(H2,12,13,15,16)",PXXUBGGGONGQBX-UHFFFAOYSA-N,CC1(CCN2CCCCC2)NC(=O)NC1=O,-0.8213,0.0,1,G1,225.292,0.4605,59.98740000000004,16.0,3.0,2.0,5.0,3.0,90.0,0.0,2.0,2.0,2.0,61.440000000000005,95.55961210224416,1.839970688951592,299.6048004293374
A-1234,cyclododecanone,InChI=1S/C12H22O/c13-12-10-8-6-4-2-1-3-5-7-9-11-12/h1-11H2,SXVPOSFURRDKBO-UHFFFAOYSA-N,O=C1CCCCCCCCCCC1,-3.8458299965,0.1191195828999998,2,G3,182.30699999999996,3.8602000000000034,55.79400000000005,13.0,1.0,0.0,1.0,0.0,76.0,0.0,1.0,1.0,1.0,17.07,81.9093052327068,2.144560008407528,126.05990292969187
B-3583,"dibenzo[a,j]anthracene",InChI=1S/C22H14/c1-3-7-19-15(5-1)9-11-17-13-18-12-10-16-6-2-4-8-20(16)22(18)14-21(17)19/h1-14H,KLIHYVJAYWCEDM-UHFFFAOYSA-N,c1ccc2c(c1)ccc1cc3ccc4ccccc4c3cc12,-8.4318,0.5309000000000004,2,G2,278.354,6.299400000000003,96.46600000000004,22.0,0.0,0.0,0.0,0.0,102.0,5.0,0.0,0.0,5.0,0.0,128.15806124643782,2.0509694788679025,1075.2978172121288
A-2747,dibenzyl {[bis(benzyloxy)phosphoryl]oxy}phosphonate,"InChI=1S/C28H28O7P2/c29-36(31-21-25-13-5-1-6-14-25,32-22-26-15-7-2-8-16-26)35-37(30,33-23-27-17-9-3-10-18-27)34-24-28-19-11-4-12-20-28/h1-20H,21-24H2",NSBNXCZCLRBQTA-UHFFFAOYSA-N,O=P(OCc1ccccc1)(OCc1ccccc1)OP(=O)(OCc1ccccc1)OCc1ccccc1,-7.2540426772,0.0,1,G1,538.4730000000003,8.086400000000006,141.22199999999984,37.0,7.0,0.0,9.0,14.0,192.0,4.0,0.0,0.0,4.0,80.29,216.72940169176,1.5413262886669157,1105.7236510365728
C-2558,"2,6-demethyl-kni-727","InChI=1S/C28H37N3O5S/c1-27(2,3)30-25(34)24-28(4,5)37-18-31(24)26(35)23(33)21(16-19-12-8-6-9-13-19)29-22(32)17-36-20-14-10-7-11-15-20/h6-15,21,23-24,33H,16-18H2,1-5H3,(H,29,32)(H,30,34)",GPNZSHBQHQEFRS-UHFFFAOYSA-N,CC(C)(C)NC(=O)C1N(C(=O)C(O)C(Cc2ccccc2)NC(=O)COc2ccccc2)CSC1(C)C,-3.83,0.0,1,G1,527.6870000000002,2.7486000000000006,145.08719999999985,37.0,6.0,3.0,9.0,9.0,200.0,2.0,1.0,1.0,3.0,107.97,222.6967533469963,1.7749632334788012,1072.2301358143695