ID,Name,InChI,InChIKey,SMILES,Solubility,SD,Occurrences,Group,MolWt,MolLogP,MolMR,HeavyAtomCount,NumHAcceptors,NumHDonors,NumHeteroatoms,NumRotatableBonds,NumValenceElectrons,NumAromaticRings,NumSaturatedRings,NumAliphaticRings,RingCount,TPSA,LabuteASA,BalabanJ,BertzCT
B-1536,"benzenemethanol, 4-bromo-","InChI=1S/C7H7BrO/c8-7-3-1-6(5-9)2-4-7/h1-4,9H,5H2",VEDDBHYQWFOITD-UHFFFAOYSA-N,OCc1ccc(Br)cc1,-1.9295,0.0,1,G1,187.036,1.9414,40.06480000000002,9.0,1.0,1.0,2.0,1.0,48.0,1.0,0.0,0.0,1.0,20.23,62.45812659173094,2.881555877646136,180.61256853719752
B-1537,p-chlorobenzyl alcohol,"InChI=1S/C7H7ClO/c8-7-3-1-6(5-9)2-4-7/h1-4,9H,5H2",PTHGDVCPCZKZKR-UHFFFAOYSA-N,OCc1ccc(Cl)cc1,-1.7561,0.0,1,G1,142.585,1.8323,37.374800000000015,9.0,1.0,1.0,2.0,1.0,48.0,1.0,0.0,0.0,1.0,20.23,58.89384521297126,2.881555877646136,180.61256853719752
B-1553,"2,3,6-trichlorophenol","InChI=1S/C6H3Cl3O/c7-3-1-2-4(8)6(10)5(3)9/h1-2,10H",XGCHAIDDPMFRLJ-UHFFFAOYSA-N,Oc1c(Cl)ccc(Cl)c1Cl,-2.6422,0.0,1,G1,197.448,3.3523999999999994,43.13680000000001,10.0,1.0,1.0,4.0,0.0,54.0,1.0,0.0,0.0,1.0,20.23,73.135435552338,3.3421538077705124,232.4149958700664
B-1558,n-benzyl-n-methylnitrosoamine,"InChI=1S/C8H10N2O/c1-10(9-11)7-8-5-3-2-4-6-8/h2-6H,7H2,1H3",NGXUJKBJBFLCAR-UHFFFAOYSA-N,CN(Cc1ccccc1)N=O,-1.5224,0.0,1,G1,150.18099999999995,1.7997999999999998,43.70400000000003,11.0,2.0,0.0,3.0,3.0,58.0,1.0,0.0,0.0,1.0,32.67,65.585989022959,2.5732138592946923,222.79348430668873
B-1560,"2,3,4,5-tetrachloroanisole","InChI=1S/C7H4Cl4O/c1-12-4-2-3(8)5(9)7(11)6(4)10/h2H,1H3",FUUHMSUPRUNWRQ-UHFFFAOYSA-N,COc1cc(Cl)c(Cl)c(Cl)c1Cl,-5.2605,0.0,1,G1,245.92,4.308800000000001,53.03400000000001,12.0,1.0,0.0,5.0,1.0,66.0,1.0,0.0,0.0,1.0,9.23,90.12295537092712,3.387046329011766,310.7649525073721
B-1561,p-methylphenoxyacetic acid,"InChI=1S/C9H10O3/c1-7-2-4-8(5-3-7)12-6-9(10)11/h2-5H,6H2,1H3,(H,10,11)",SFTDDFBJWUWKMN-UHFFFAOYSA-N,Cc1ccc(OCC(=O)O)cc1,-2.1414,0.0,1,G1,166.17600000000002,1.4584199999999998,44.30980000000002,12.0,2.0,1.0,3.0,3.0,64.0,1.0,0.0,0.0,1.0,46.53,70.59553054443343,2.5298890742894535,263.6070662599115
B-1563,"benzene, 1,2,3,4-tetrachloro-5,6-dimethoxy-",InChI=1S/C8H6Cl4O2/c1-13-7-5(11)3(9)4(10)6(12)8(7)14-2/h1-2H3,NCYHCGGUQGDEQW-UHFFFAOYSA-N,COc1c(Cl)c(Cl)c(Cl)c(Cl)c1OC,-5.2394,0.0,1,G1,275.946,4.317400000000001,59.58600000000002,14.0,2.0,0.0,6.0,2.0,78.0,1.0,0.0,0.0,1.0,18.46,101.60144271483064,3.565685835546343,330.0942913293867
B-1587,"glycine, n-(2,4,6-trinitrophenyl)-","InChI=1S/C8H6N4O8/c13-7(14)3-9-8-5(11(17)18)1-4(10(15)16)2-6(8)12(19)20/h1-2,9H,3H2,(H,13,14)",BUBMNUKMCHTIRR-UHFFFAOYSA-N,O=C(O)CNc1c([N+](=O)[O-])cc([N+](=O)[O-])cc1[N+](=O)[O-],-2.3922,0.0,1,G1,286.156,0.9077,62.53069999999998,20.0,8.0,2.0,12.0,6.0,106.0,1.0,0.0,0.0,1.0,178.75,108.6258325516374,3.5013825720592995,577.4895900738666
B-1588,octyl gallate,"InChI=1S/C15H22O5/c1-2-3-4-5-6-7-8-20-15(19)11-9-12(16)14(18)13(17)10-11/h9-10,16-18H,2-8H2,1H3",NRPKURNSADTHLJ-UHFFFAOYSA-N,CCCCCCCCOC(=O)c1cc(O)c(O)c(O)c1,-3.8945,0.0,1,G1,282.336,3.320700000000003,75.09490000000002,20.0,5.0,3.0,5.0,8.0,112.0,1.0,0.0,0.0,1.0,86.99000000000001,118.37365073520516,2.3277387125884665,418.8851677560183
B-1593,1-bromo-2-fluorobenzene,InChI=1S/C6H4BrF/c7-5-3-1-2-4-6(5)8/h1-4H,IPWBFGUBXWMIPR-UHFFFAOYSA-N,Fc1ccccc1Br,-2.6958,0.0,1,G1,175.0,2.5882000000000005,34.1,8.0,0.0,0.0,2.0,0.0,42.0,1.0,0.0,0.0,1.0,0.0,55.46448612806456,3.134861511345448,164.63833891467198
B-1595,1-phenylheptane,"InChI=1S/C13H20/c1-2-3-4-5-7-10-13-11-8-6-9-12-13/h6,8-9,11-12H,2-5,7,10H2,1H3",LBNXAWYDQUGHGX-UHFFFAOYSA-N,CCCCCCCc1ccccc1,-5.5959,0.0,1,G1,176.30300000000005,4.199500000000003,58.90500000000005,13.0,0.0,0.0,0.0,6.0,72.0,1.0,0.0,0.0,1.0,0.0,81.98599792027323,2.0653801840299586,200.53811204568345
B-1596,hexyl p-hydroxybenzoate,"InChI=1S/C13H18O3/c1-2-3-4-5-10-16-13(15)11-6-8-12(14)9-7-11/h6-9,14H,2-5,10H2,1H3",ULULAZKOCFNOIM-UHFFFAOYSA-N,CCCCCCOC(=O)c1ccc(O)cc1,-3.949,0.0,1,G1,222.284,3.1293000000000015,62.53130000000005,16.0,3.0,1.0,3.0,6.0,88.0,1.0,0.0,0.0,1.0,46.53,96.0552990020199,2.2702939313664987,316.45452081251267
B-1597,heptyl p-hydroxybenzoate,"InChI=1S/C14H20O3/c1-2-3-4-5-6-11-17-14(16)12-7-9-13(15)10-8-12/h7-10,15H,2-6,11H2,1H3",ZTJORNVITHUQJA-UHFFFAOYSA-N,CCCCCCCOC(=O)c1ccc(O)cc1,-4.0725,0.0,1,G1,236.311,3.5194000000000027,67.14830000000005,17.0,3.0,1.0,3.0,7.0,94.0,1.0,0.0,0.0,1.0,46.53,102.4202411164165,2.187783398833526,329.82548829414884
B-1598,dichlofluanid,"InChI=1S/C9H11Cl2FN2O2S2/c1-13(2)18(15,16)14(17-9(10,11)12)8-6-4-3-5-7-8/h3-7H,1-2H3",WURGXGVFSMYFCG-UHFFFAOYSA-N,CN(C)S(=O)(=O)N(SC(F)(Cl)Cl)c1ccccc1,-5.4088,0.0,1,G1,333.237,3.006000000000001,74.66380000000002,18.0,3.0,0.0,9.0,5.0,102.0,1.0,0.0,0.0,1.0,40.620000000000005,119.97260559882044,3.205352782298732,491.0391413598906
B-1616,"phenol, 4-chloro-2,6-dimethyl-","InChI=1S/C8H9ClO/c1-5-3-7(9)4-6(2)8(5)10/h3-4,10H,1-2H3",VWYKSJIPZHRLNO-UHFFFAOYSA-N,Cc1cc(Cl)cc(C)c1O,-1.6763,0.0,1,G1,156.612,2.6624400000000015,42.59080000000002,10.0,1.0,1.0,2.0,0.0,54.0,1.0,0.0,0.0,1.0,20.23,65.25878732736787,3.3105328747224068,232.4296583765569
B-1619,"1,2-benzenediol, 4-(2-propenyl)-","InChI=1S/C9H10O2/c1-2-3-7-4-5-8(10)9(11)6-7/h2,4-6,10-11H,1,3H2",FHEHIXJLCWUPCZ-UHFFFAOYSA-N,C=CCc1ccc(O)c(O)c1,-0.7787,0.0,1,G1,150.177,1.8263,43.672600000000024,11.0,2.0,2.0,2.0,2.0,58.0,1.0,0.0,0.0,1.0,40.46,65.42509393489455,2.9473707295369223,266.26528506874683
B-1633,"2,5-dihydroxybenzaldehyde","InChI=1S/C7H6O3/c8-4-5-3-6(9)1-2-7(5)10/h1-4,9-10H",CLFRCXCBWIQVRN-UHFFFAOYSA-N,O=Cc1cc(O)ccc1O,-1.0004,0.0,1,G1,138.122,0.9103,35.1591,10.0,3.0,2.0,3.0,1.0,52.0,1.0,0.0,0.0,1.0,57.53,57.54633483832936,3.211310929132047,255.02817392215357
B-1637,"dl-alanine, n-benzoyl-","InChI=1S/C10H11NO3/c1-7(10(13)14)11-9(12)8-5-3-2-4-6-8/h2-7H,1H3,(H,11,12)(H,13,14)",UAQVHNZEONHPQG-UHFFFAOYSA-N,CC(NC(=O)c1ccccc1)C(=O)O,-1.6839,0.0,1,G1,193.20199999999997,0.8895,51.00600000000002,14.0,2.0,2.0,4.0,3.0,74.0,1.0,0.0,0.0,1.0,66.4,81.558311712975,2.641954104458228,334.4801643637959
B-1638,methyl n-benzoglycine,"InChI=1S/C10H11NO3/c1-14-9(12)7-11-10(13)8-5-3-2-4-6-8/h2-6H,7H2,1H3,(H,11,13)",XTKVNQKOTKPCKM-UHFFFAOYSA-N,COC(=O)CNC(=O)c1ccccc1,-1.0556,0.0,1,G1,193.20200000000003,0.5893999999999995,50.791200000000025,14.0,3.0,1.0,4.0,3.0,74.0,1.0,0.0,0.0,1.0,55.4,81.87762319028586,2.4770888710720005,321.3988126104432
B-1641,"benzoic acid, 4-hydroxy, octyl ester","InChI=1S/C15H22O3/c1-2-3-4-5-6-7-12-18-15(17)13-8-10-14(16)11-9-13/h8-11,16H,2-7,12H2,1H3",RIKCMEDSBFQFAL-UHFFFAOYSA-N,CCCCCCCCOC(=O)c1ccc(O)cc1,-4.2224,0.0,1,G1,250.338,3.909500000000003,71.76530000000004,18.0,3.0,1.0,3.0,8.0,100.0,1.0,0.0,0.0,1.0,46.53,108.78518323081312,2.117836776279736,343.2612760189044
B-1655,dinoterb,"InChI=1S/C10H12N2O5/c1-10(2,3)7-4-6(11(14)15)5-8(9(7)13)12(16)17/h4-5,13H,1-3H3",IIPZYDQGBIWLBU-UHFFFAOYSA-N,CC(C)(C)c1cc([N+](=O)[O-])cc([N+](=O)[O-])c1O,-4.7274,0.0,1,G1,240.21499999999995,2.506100000000002,60.115600000000015,17.0,5.0,1.0,7.0,2.0,92.0,1.0,0.0,0.0,1.0,106.51,96.99135677427898,3.604925771725336,490.2050039218606
B-1668,2-(acetyloxy)-4-bromo-benzoic acid,"InChI=1S/C9H7BrO4/c1-5(11)14-8-3-2-6(10)4-7(8)9(12)13/h2-4H,1H3,(H,12,13)",VRJBEVQGJOSGOX-UHFFFAOYSA-N,CC(=O)Oc1ccc(Br)cc1C(=O)O,-2.5895,0.0,1,G1,259.055,2.0726,52.41030000000001,14.0,3.0,1.0,5.0,2.0,74.0,1.0,0.0,0.0,1.0,63.6,88.62460025011859,3.1445946425258846,386.3983860622849
B-1673,"urea, (4-methoxyphenyl)-","InChI=1S/C8H10N2O2/c1-12-7-4-2-6(3-5-7)10-8(9)11/h2-5H,1H3,(H3,9,10,11)",PGUKYDVWVXRPKK-UHFFFAOYSA-N,COc1ccc(NC(N)=O)cc1,-1.5917,0.0,1,G1,166.18,1.1857999999999995,46.200100000000006,12.0,2.0,2.0,4.0,2.0,64.0,1.0,0.0,0.0,1.0,64.35,70.32610755846159,2.7091478243736495,268.89127877505575
B-1674,4-methoxy-2-nitrophenol,"InChI=1S/C7H7NO4/c1-12-5-2-3-7(9)6(4-5)8(10)11/h2-4,9H,1H3",YBUGOACXDPDUIR-UHFFFAOYSA-N,COc1ccc(O)c([N+](=O)[O-])c1,-2.8409,0.0,1,G1,169.13599999999997,1.3089999999999995,41.313200000000016,12.0,4.0,1.0,5.0,2.0,64.0,1.0,0.0,0.0,1.0,72.6,68.35709993809625,3.167265777748714,310.274727511699
B-1677,2-methyl-4-chlorophenol,"InChI=1S/C7H7ClO/c1-5-4-6(8)2-3-7(5)9/h2-4,9H,1H3",RHPUJHQBPORFGV-UHFFFAOYSA-N,Cc1cc(Cl)ccc1O,-1.5519999999999998,0.12017300195,2,G3,142.585,2.3540200000000007,37.853800000000014,9.0,1.0,1.0,2.0,0.0,48.0,1.0,0.0,0.0,1.0,20.23,58.89384521297126,3.1716780304409156,220.15617759993404
B-1678,"4,6-dichloro-o-cresol","InChI=1S/C7H6Cl2O/c1-4-2-5(8)3-6(9)7(4)10/h2-3,10H,1H3",WJQZZLQMLJPKQH-UHFFFAOYSA-N,Cc1cc(Cl)cc(Cl)c1O,-2.0439,0.0,1,G1,177.03,3.00742,42.86380000000002,10.0,1.0,1.0,3.0,0.0,54.0,1.0,0.0,0.0,1.0,20.23,69.19711143985293,3.3105328747224068,234.77817392215363
B-1679,"benzamide, 3-(aminosulfonyl)-","InChI=1S/C7H8N2O3S/c8-7(10)5-2-1-3-6(4-5)13(9,11)12/h1-4H,(H2,8,10)(H2,9,11,12)",AJVBPNRMKNARPG-UHFFFAOYSA-N,NC(=O)c1cccc(S(N)(=O)=O)c1,-2.1554,0.0,1,G1,200.2189999999999,-0.5670999999999999,46.33310000000001,13.0,3.0,2.0,6.0,2.0,70.0,1.0,0.0,0.0,1.0,103.25,75.39842462037784,3.291324672397669,438.805806251591
B-1705,bromoxynil,"InChI=1S/C7H3Br2NO/c8-5-1-4(3-10)2-6(9)7(5)11/h1-2,11H",UPMXNNIRAGDFEH-UHFFFAOYSA-N,N#Cc1cc(Br)c(O)c(Br)c1,-3.3284,0.0,1,G1,276.915,2.78888,48.22180000000001,11.0,2.0,1.0,4.0,0.0,56.0,1.0,0.0,0.0,1.0,44.02,80.71825387884101,3.3483696607830975,306.6978379924635
B-1706,bromoxynil octanoate,"InChI=1S/C15H17Br2NO2/c1-2-3-4-5-6-7-14(19)20-15-12(16)8-11(10-18)9-13(15)17/h8-9H,2-7H2,1H3",DQKWXTIYGWPGOO-UHFFFAOYSA-N,CCCCCCCC(=O)Oc1c(Br)cc(C#N)cc1Br,-6.7023,0.0,1,G1,403.114,5.349180000000004,85.56800000000004,20.0,3.0,0.0,5.0,7.0,108.0,1.0,0.0,0.0,1.0,50.09,136.11862437136853,2.521601062826903,486.0803568040389
B-1719,"benzenemethanol, 2,4-dichloro-","InChI=1S/C7H6Cl2O/c8-6-2-1-5(4-10)7(9)3-6/h1-3,10H,4H2",DBHODFSFBXJZNY-UHFFFAOYSA-N,OCc1ccc(Cl)cc1Cl,-2.248,0.0,1,G1,177.03,2.4857000000000005,42.38480000000002,10.0,1.0,1.0,3.0,1.0,54.0,1.0,0.0,0.0,1.0,20.23,69.19711143985293,3.0699827149988397,235.04775799182192
B-1722,"3,4-dichlorobenzyl alcohol","InChI=1S/C7H6Cl2O/c8-6-2-1-5(4-10)3-7(6)9/h1-3,10H,4H2",FVJIUQSKXOYFKG-UHFFFAOYSA-N,OCc1ccc(Cl)c(Cl)c1,-2.0439,0.0,1,G1,177.03,2.4857000000000005,42.38480000000002,10.0,1.0,1.0,3.0,1.0,54.0,1.0,0.0,0.0,1.0,20.23,69.19711143985293,3.04361805911428,235.04775799182192
B-1732,dimethyl tetrachloroterephthalate,InChI=1S/C10H6Cl4O4/c1-17-9(15)3-5(11)7(13)4(10(16)18-2)8(14)6(3)12/h1-2H3,NPOJQCVWMSKXDN-UHFFFAOYSA-N,COC(=O)c1c(Cl)c(Cl)c(C(=O)OC)c(Cl)c1Cl,-5.8221,0.0,1,G1,331.9660000000001,3.873400000000001,69.16100000000002,18.0,4.0,0.0,8.0,2.0,98.0,1.0,0.0,0.0,1.0,52.60000000000001,122.65437114371136,3.6568925941256207,451.0943439954274
B-1734,tritac,"InChI=1S/C10H11Cl3O2/c1-6(14)4-15-5-7-8(11)2-3-9(12)10(7)13/h2-3,6,14H,4-5H2,1H3",LJWIIRATRWPHBA-UHFFFAOYSA-N,CC(O)COCc1c(Cl)ccc(Cl)c1Cl,-3.5673,0.0,1,G1,269.555,3.544200000000002,62.80880000000003,15.0,2.0,1.0,5.0,4.0,84.0,1.0,0.0,0.0,1.0,29.46,103.7087492394313,2.713679888596874,339.68454012927407
B-1739,o-methylphenoxyacetic acid,"InChI=1S/C9H10O3/c1-7-4-2-3-5-8(7)12-6-9(10)11/h2-5H,6H2,1H3,(H,10,11)",QJVXBRUGKLCUMY-UHFFFAOYSA-N,Cc1ccccc1OCC(=O)O,-2.4424,0.0,1,G1,166.176,1.45842,44.30980000000002,12.0,2.0,1.0,3.0,3.0,64.0,1.0,0.0,0.0,1.0,46.53,70.59553054443344,2.628507002147093,280.85706625991145
B-1740,o-nitrophenoxyacetic acid,"InChI=1S/C8H7NO5/c10-8(11)5-14-7-4-2-1-3-6(7)9(12)13/h1-4H,5H2,(H,10,11)",TYHHDWAHJRRYCU-UHFFFAOYSA-N,O=C(O)COc1ccccc1[N+](=O)[O-],-2.016,0.0,1,G1,197.146,1.0582,46.22720000000002,14.0,4.0,1.0,6.0,4.0,74.0,1.0,0.0,0.0,1.0,89.66999999999999,78.88356415253662,2.844190583560692,362.5042008636037
B-1749,dipropalin,"InChI=1S/C13H19N3O4/c1-4-6-14(7-5-2)13-11(15(17)18)8-10(3)9-12(13)16(19)20/h8-9H,4-7H2,1-3H3",UDVZOMAEGATTSE-UHFFFAOYSA-N,CCCN(CCC)c1c([N+](=O)[O-])cc(C)cc1[N+](=O)[O-],-2.9663,0.0,1,G1,281.312,3.437820000000002,77.28280000000002,20.0,5.0,0.0,7.0,7.0,110.0,1.0,0.0,0.0,1.0,89.51999999999998,117.05178303547618,3.5195921307408695,475.3328869044959
B-1750,"2,6-di-t-butyl-p-tolyl methylcarbamate","InChI=1S/C17H27NO2/c1-11-9-12(16(2,3)4)14(20-15(19)18-8)13(10-11)17(5,6)7/h9-10H,1-8H3,(H,18,19)",PNRAZZZISDRWMV-UHFFFAOYSA-N,CNC(=O)Oc1c(C(C)(C)C)cc(C)cc1C(C)(C)C,-4.598,0.0,1,G1,277.408,4.308220000000004,83.66270000000006,20.0,2.0,1.0,3.0,1.0,112.0,1.0,0.0,0.0,1.0,38.33,122.27069589101832,3.5839975759713067,469.696893510504
B-1753,"2,4-d, methyl ester","InChI=1S/C9H8Cl2O3/c1-13-9(12)5-14-8-3-2-6(10)4-7(8)11/h2-4H,5H2,1H3",HWIGZMADSFQMOI-UHFFFAOYSA-N,COC(=O)COc1ccc(Cl)cc1Cl,-2.9596,0.0,1,G1,235.066,2.5452000000000004,53.97300000000002,14.0,3.0,0.0,5.0,3.0,76.0,1.0,0.0,0.0,1.0,35.53,91.52137447550764,2.6321748000640026,338.828993542009
B-1754,"2,4,5-t, ethyl ester","InChI=1S/C10H9Cl3O3/c1-2-15-10(14)5-16-9-4-7(12)6(11)3-8(9)13/h3-4H,2,5H2,1H3",LVNNFHCEDQSWSC-UHFFFAOYSA-N,CCOC(=O)COc1cc(Cl)c(Cl)cc1Cl,-4.8493,0.0,1,G1,283.538,3.588700000000002,63.60000000000002,16.0,3.0,0.0,6.0,4.0,88.0,1.0,0.0,0.0,1.0,35.53,108.18958281678592,2.6709856086940738,393.1407987110953
B-1755,"2,4-d, octyl ester","InChI=1S/C16H22Cl2O3/c1-2-3-4-5-6-7-10-20-16(19)12-21-15-9-8-13(17)11-14(15)18/h8-9,11H,2-7,10,12H2,1H3",JWEDKKSQRXHXJD-UHFFFAOYSA-N,CCCCCCCCOC(=O)COc1ccc(Cl)cc1Cl,-7.0217,0.0,1,G1,333.255,5.2759000000000045,86.29200000000004,21.0,3.0,0.0,5.0,10.0,118.0,1.0,0.0,0.0,1.0,35.53,136.0759692762839,2.1090610092354276,435.53030729343914
B-1756,"2,4-d, propyl ester","InChI=1S/C11H12Cl2O3/c1-2-5-15-11(14)7-16-10-4-3-8(12)6-9(10)13/h3-4,6H,2,5,7H2,1H3",URELEWKDONECLX-UHFFFAOYSA-N,CCCOC(=O)COc1ccc(Cl)cc1Cl,-4.2502,0.0,1,G1,263.12,3.325400000000002,63.20700000000003,16.0,3.0,0.0,5.0,5.0,88.0,1.0,0.0,0.0,1.0,35.53,104.25125870430088,2.449851880586933,366.2473496198969
B-1757,p-meo-b-phenylpropionic acid,"InChI=1S/C10H12O3/c1-13-9-5-2-8(3-6-9)4-7-10(11)12/h2-3,5-6H,4,7H2,1H3,(H,11,12)",FIUFLISGGHNPSM-UHFFFAOYSA-N,COc1ccc(CCC(=O)O)cc1,-2.2144,0.0,1,G1,180.203,1.7124,48.95080000000002,13.0,2.0,1.0,3.0,4.0,70.0,1.0,0.0,0.0,1.0,46.53,76.96047265883007,2.5375612644950314,276.7262618127396
B-1758,"2,4-d, butoxyethyl ester","InChI=1S/C14H18Cl2O4/c1-2-3-6-18-7-8-19-14(17)10-20-13-5-4-11(15)9-12(13)16/h4-5,9H,2-3,6-8,10H2,1H3",ZMWGIGHRZQTQRE-UHFFFAOYSA-N,CCCCOCCOC(=O)COc1ccc(Cl)cc1Cl,-4.4276,0.0,1,G1,321.20000000000005,3.732100000000002,78.64300000000004,20.0,4.0,0.0,6.0,9.0,112.0,1.0,0.0,0.0,1.0,44.760000000000005,128.4596302769976,2.1625713992357176,423.6349722814627
B-1765,"1,3-benzenedicarboxylic acid, 2-methoxy-","InChI=1S/C9H8O5/c1-14-7-5(8(10)11)3-2-4-6(7)9(12)13/h2-4H,1H3,(H,10,11)(H,12,13)",ZRWAPLTWCQQSAN-UHFFFAOYSA-N,COc1c(C(=O)O)cccc1C(=O)O,-2.2926,0.0,1,G1,196.15799999999996,1.0916,46.912600000000005,14.0,3.0,2.0,5.0,3.0,74.0,1.0,0.0,0.0,1.0,83.83000000000001,79.55128639667323,3.3940405061093943,350.5387455878481
B-1766,"propanoic acid, 4-nitrophenyl ester","InChI=1S/C9H9NO4/c1-2-9(11)14-8-5-3-7(4-6-8)10(12)13/h3-6H,2H2,1H3",DCQWRDUXRZSWHI-UHFFFAOYSA-N,CCC(=O)Oc1ccc([N+](=O)[O-])cc1,-3.8925,0.0,1,G1,195.174,1.9102,49.02240000000001,14.0,4.0,0.0,5.0,3.0,74.0,1.0,0.0,0.0,1.0,69.44,80.45427251473723,2.7334192841065263,344.33451632505984
B-1767,"pentanoic acid, 4-nitrophenyl ester","InChI=1S/C11H13NO4/c1-2-3-4-11(13)16-10-7-5-9(6-8-10)12(14)15/h5-8H,2-4H2,1H3",RJQXEHRFVKJLJO-UHFFFAOYSA-N,CCCCC(=O)Oc1ccc([N+](=O)[O-])cc1,-4.3945,0.0,1,G1,223.228,2.6904000000000012,58.25640000000003,16.0,4.0,0.0,5.0,5.0,86.0,1.0,0.0,0.0,1.0,69.44,93.18415674353044,2.5470511782206597,372.0758818636124
B-1771,"3,4-dichlorobenzyl methylcarbamate","InChI=1S/C9H9Cl2NO2/c1-12-9(13)14-5-6-2-3-7(10)8(11)4-6/h2-4H,5H2,1H3,(H,12,13)",DSVOTYIOPGIVPP-UHFFFAOYSA-N,CNC(=O)OCc1ccc(Cl)c(Cl)c1,-3.1389,0.0,1,G1,234.082,2.849400000000001,55.70670000000002,14.0,2.0,1.0,5.0,2.0,76.0,1.0,0.0,0.0,1.0,38.33,91.9576914296088,2.5970898202238173,341.5838810441725
B-1772,chlorbufam,"InChI=1S/C11H10ClNO2/c1-3-8(2)15-11(14)13-10-6-4-5-9(12)7-10/h1,4-8H,2H3,(H,13,14)",ULBXWWGWDPVHAO-UHFFFAOYSA-N,C#CC(C)OC(=O)Nc1cccc(Cl)c1,-2.6172,0.0,1,G1,223.659,2.910200000000001,59.85070000000002,15.0,2.0,1.0,4.0,2.0,78.0,1.0,0.0,0.0,1.0,38.33,93.38353482337963,2.5583630009752976,397.8195493831233
B-1773,p-bromophenylurea,"InChI=1S/C7H7BrN2O/c8-5-1-3-6(4-2-5)10-7(9)11/h1-4H,(H3,9,10,11)",PFQUUCXMPUNRLA-UHFFFAOYSA-N,NC(=O)Nc1ccc(Br)cc1,-1.6336,0.0,1,G1,215.05,1.9397,47.34810000000001,11.0,1.0,2.0,4.0,1.0,58.0,1.0,0.0,0.0,1.0,55.120000000000005,72.71516782019947,2.7362980721056545,257.6480131294878
B-1774,1-bromo-2-ethylbenzene,"InChI=1S/C8H9Br/c1-2-7-5-3-4-6-8(7)9/h3-6H,2H2,1H3",HVRUGFJYCAFAAN-UHFFFAOYSA-N,CCc1ccccc1Br,-3.6702,0.0,1,G1,185.06399999999996,3.0115000000000016,43.520000000000024,9.0,0.0,0.0,1.0,1.0,48.0,1.0,0.0,0.0,1.0,0.0,64.02883495393154,3.0065240073265844,193.51405299160075
B-1777,"benzene, 1,2-dichloro-3-methoxy-","InChI=1S/C7H6Cl2O/c1-10-6-4-2-3-5(8)7(6)9/h2-4H,1H3",HFEASCCDHUVYKU-UHFFFAOYSA-N,COc1cccc(Cl)c1Cl,-3.3089999999999997,0.0,1,G1,177.02999999999997,3.0020000000000016,43.01400000000002,10.0,1.0,0.0,3.0,1.0,54.0,1.0,0.0,0.0,1.0,9.23,69.5164229171638,3.14303948130643,235.04775799182192
B-1778,"benzene, 1,3-dichloro-2-methoxy-","InChI=1S/C7H6Cl2O/c1-10-7-5(8)3-2-4-6(7)9/h2-4H,1H3",KZLMCDNAVVJKPX-UHFFFAOYSA-N,COc1c(Cl)cccc1Cl,-3.1019,0.0,1,G1,177.03,3.0020000000000007,43.01400000000002,10.0,1.0,0.0,3.0,1.0,54.0,1.0,0.0,0.0,1.0,9.23,69.5164229171638,3.1694511920127173,214.79775799182192
B-1779,"2-propenamide, 3-(2-nitrophenyl)-","InChI=1S/C9H8N2O3/c10-9(12)6-5-7-3-1-2-4-8(7)11(13)14/h1-6H,(H2,10,12)",RASLWNGTMHFPIQ-UHFFFAOYSA-N,NC(=O)C=Cc1ccccc1[N+](=O)[O-],-1.2837,0.0,1,G1,192.174,1.0933000000000002,51.3248,14.0,3.0,1.0,5.0,3.0,72.0,1.0,0.0,0.0,1.0,86.22999999999999,79.9910149500588,3.0744652861118364,398.7984696519948
B-1784,ethyl b-phenylpropionate,"InChI=1S/C11H14O2/c1-2-13-11(12)9-8-10-6-4-3-5-7-10/h3-7H,2,8-9H2,1H3",JAGZUIGGHGTFHO-UHFFFAOYSA-N,CCOC(=O)CCc1ccccc1,-2.9086,0.0,1,G1,178.23100000000002,2.1822999999999997,51.39600000000003,13.0,2.0,0.0,2.0,4.0,70.0,1.0,0.0,0.0,1.0,26.3,78.53118102103066,2.310042822879905,254.05260581186823
B-1786,aminocarb,"InChI=1S/C11H16N2O2/c1-8-7-9(15-11(14)12-2)5-6-10(8)13(3)4/h5-7H,1-4H3,(H,12,14)",IMIDOCRTMDIQIJ-UHFFFAOYSA-N,CNC(=O)Oc1ccc(N(C)C)c(C)c1,-2.3572,0.0,1,G1,208.26099999999997,1.77922,60.58970000000003,15.0,3.0,1.0,4.0,2.0,82.0,1.0,0.0,0.0,1.0,41.57,89.84087687484205,2.8663948066468974,361.6055960561882
B-1787,methiocarb,"InChI=1S/C11H15NO2S/c1-7-5-9(14-11(13)12-3)6-8(2)10(7)15-4/h5-6H,1-4H3,(H,12,13)",YFBPRJGDJKVWAH-UHFFFAOYSA-N,CNC(=O)Oc1cc(C)c(SC)c(C)c1,-3.9214,0.2157999999999997,2,G3,225.313,2.743540000000001,62.78070000000003,15.0,3.0,1.0,4.0,2.0,82.0,1.0,0.0,0.0,1.0,38.33,94.20415323000393,2.9808899617813673,353.8458253198426
B-1802,"benzene, 1-bromo-3-isothiocyanato-",InChI=1S/C7H4BrNS/c8-6-2-1-3-7(4-6)9-5-10/h1-4H,ZMGMGHNOACSMQN-UHFFFAOYSA-N,S=C=Nc1cccc(Br)c1,-4.0851,0.0,1,G1,214.087,3.1834000000000007,48.82800000000001,10.0,2.0,0.0,3.0,1.0,50.0,1.0,0.0,0.0,1.0,12.36,72.91799557259993,3.061972168711611,278.6895252608723
B-1811,dicryl,"InChI=1S/C10H9Cl2NO/c1-6(2)10(14)13-7-3-4-8(11)9(12)5-7/h3-5H,1H2,2H3,(H,13,14)",VCBRBUKGTWLJOB-UHFFFAOYSA-N,C=C(C)C(=O)Nc1ccc(Cl)c(Cl)c1,-4.4325,0.0,1,G1,230.094,3.508000000000002,59.905700000000024,14.0,1.0,1.0,4.0,2.0,74.0,1.0,0.0,0.0,1.0,29.1,92.51948528231428,2.831519833414496,387.7084301263921
B-1812,bcpc,"InChI=1S/C11H14ClNO2/c1-3-8(2)15-11(14)13-10-6-4-5-9(12)7-10/h4-8H,3H2,1-2H3,(H,13,14)",CURLHBZYTFVCRG-UHFFFAOYSA-N,CCC(C)OC(=O)Nc1cccc(Cl)c1,-3.1727,0.0,1,G1,227.691,3.687000000000002,61.30870000000003,15.0,2.0,1.0,4.0,3.0,82.0,1.0,0.0,0.0,1.0,38.33,94.38430943152036,2.511727299171399,341.11473577962784
B-1817,"1,3-benzenedicarboxylic acid, 4-methoxy-","InChI=1S/C9H8O5/c1-14-7-3-2-5(8(10)11)4-6(7)9(12)13/h2-4H,1H3,(H,10,11)(H,12,13)",JIICYHFLIOGGHE-UHFFFAOYSA-N,COc1ccc(C(=O)O)cc1C(=O)O,-3.1165,0.0,1,G1,196.158,1.0916,46.912600000000005,14.0,3.0,2.0,5.0,3.0,74.0,1.0,0.0,0.0,1.0,83.83000000000001,79.55128639667323,3.2744144453933877,382.788745587848