ID,Name,InChI,InChIKey,SMILES,Solubility,SD,Occurrences,Group,MolWt,MolLogP,MolMR,HeavyAtomCount,NumHAcceptors,NumHDonors,NumHeteroatoms,NumRotatableBonds,NumValenceElectrons,NumAromaticRings,NumSaturatedRings,NumAliphaticRings,RingCount,TPSA,LabuteASA,BalabanJ,BertzCT
B-2713,atenolol,"InChI=1S/C14H22N2O3/c1-10(2)16-8-12(17)9-19-13-5-3-11(4-6-13)7-14(15)18/h3-6,10,12,16-17H,7-9H2,1-2H3,(H2,15,18)",METKIMKYRPQLGS-UHFFFAOYSA-N,CC(C)NCC(O)COc1ccc(CC(N)=O)cc1,-1.3016,0.2758,2,G3,266.34099999999995,0.4521,73.98090000000003,19.0,4.0,3.0,5.0,8.0,106.0,1.0,0.0,0.0,1.0,84.57999999999998,113.30999399703728,2.346203475304779,390.18247960279086
B-2727,ethiofencarb,"InChI=1S/C11H15NO2S/c1-3-15-8-9-6-4-5-7-10(9)14-11(13)12-2/h4-7H,3,8H2,1-2H3,(H,12,13)",HEZNVIYQEUHLNI-UHFFFAOYSA-N,CCSCc1ccccc1OC(=O)NC,-2.0927,0.0,1,G1,225.313,2.6579000000000006,63.36170000000004,15.0,3.0,1.0,4.0,4.0,82.0,1.0,0.0,0.0,1.0,38.33,94.20415323000394,2.717126876654733,328.1188895793997
B-2730,"propanoic acid, 2-(2,4,5-trichlorophenoxy)-, (r)","InChI=1S/C9H7Cl3O3/c1-4(9(13)14)15-8-3-6(11)5(10)2-7(8)12/h2-4H,1H3,(H,13,14)/t4-/m1/s1",ZLSWBLPERHFHIS-SCSAIBSYSA-N,C[C@@H](Oc1cc(Cl)c(Cl)cc1Cl)C(=O)O,-3.1295,0.0,1,G1,269.511,3.4987000000000013,59.197800000000015,15.0,2.0,1.0,6.0,3.0,82.0,1.0,0.0,0.0,1.0,46.53,101.50532922507848,2.9526811232485635,392.4341135811158
B-2764,m-bromocinnamic acid,"InChI=1S/C9H7BrO2/c10-8-3-1-2-7(6-8)4-5-9(11)12/h1-6H,(H,11,12)/b5-4+",YEMUSDCFQUBPAL-SNAWJCMRSA-N,O=C(O)/C=C/c1cccc(Br)c1,-2.636,0.0,1,G1,227.057,2.546900000000001,50.81180000000002,12.0,1.0,1.0,3.0,2.0,62.0,1.0,0.0,0.0,1.0,37.3,78.65992988838367,2.826395262966909,318.05950344595533
B-2767,2-ethylacetanilide,"InChI=1S/C10H13NO/c1-3-9-6-4-5-7-10(9)11-8(2)12/h4-7H,3H2,1-2H3,(H,11,12)",ZXOVAGUQXNXKHF-UHFFFAOYSA-N,CCc1ccccc1NC(C)=O,-1.5906,0.0,1,G1,163.21999999999997,2.2074,50.12370000000003,12.0,1.0,1.0,2.0,2.0,64.0,1.0,0.0,0.0,1.0,29.1,72.60255586073521,2.8889412995372648,280.9219978261821
B-2769,fluchloralin,"InChI=1S/C12H13ClF3N3O4/c1-2-4-17(5-3-13)11-9(18(20)21)6-8(12(14,15)16)7-10(11)19(22)23/h6-7H,2-5H2,1H3",MNFMIVVPXOGUMX-UHFFFAOYSA-N,CCCN(CCCl)c1c([N+](=O)[O-])cc(C(F)(F)F)cc1[N+](=O)[O-],-5.5968,0.5228999999999999,2,G2,355.70000000000005,3.977000000000003,77.97680000000001,23.0,5.0,0.0,11.0,7.0,128.0,1.0,0.0,0.0,1.0,89.51999999999998,133.48671335673995,3.699377936225601,568.699086225864
B-2773,butralin,"InChI=1S/C14H21N3O4/c1-6-9(2)15-13-11(16(18)19)7-10(14(3,4)5)8-12(13)17(20)21/h7-9,15H,6H2,1-5H3",SPNQRCTZKIBOAX-UHFFFAOYSA-N,CCC(C)Nc1c([N+](=O)[O-])cc(C(C)(C)C)cc1[N+](=O)[O-],-5.4703,0.0,1,G1,295.339,4.010900000000003,81.82650000000002,21.0,5.0,1.0,7.0,5.0,116.0,1.0,0.0,0.0,1.0,98.31,123.20675366327744,3.588145946501451,528.8229269026048
B-2774,"ethanone, 1-(3,4,5-trihydroxyphenyl)-","InChI=1S/C8H8O4/c1-4(9)5-2-6(10)8(12)7(11)3-5/h2-3,10-12H,1H3",IBKQQKPQRYUGBJ-UHFFFAOYSA-N,CC(=O)c1cc(O)c(O)c(O)c1,-1.4711,0.0,1,G1,168.14799999999997,1.0059999999999998,41.44090000000002,12.0,4.0,3.0,4.0,1.0,64.0,1.0,0.0,0.0,1.0,77.76,68.70551070492198,3.306535412749064,306.8248996548373
B-2775,isopropalin,"InChI=1S/C15H23N3O4/c1-5-7-16(8-6-2)15-13(17(19)20)9-12(11(3)4)10-14(15)18(21)22/h9-11H,5-8H2,1-4H3",NEKOXWSIMFDGMA-UHFFFAOYSA-N,CCCN(CCC)c1c([N+](=O)[O-])cc(C(C)C)cc1[N+](=O)[O-],-6.4491,0.0204500000000003,2,G3,309.36600000000004,4.252800000000004,86.63480000000003,22.0,5.0,0.0,7.0,8.0,122.0,1.0,0.0,0.0,1.0,89.51999999999998,129.78166726426937,3.6210484465888126,516.7136957630747
B-2778,methyl phenylsulfonyl acetate,"InChI=1S/C9H10O4S/c1-13-9(10)7-14(11,12)8-5-3-2-4-6-8/h2-6H,7H2,1H3",NLEAIFBNKPYTGN-UHFFFAOYSA-N,COC(=O)CS(=O)(=O)c1ccccc1,-1.1406,0.0,1,G1,214.242,0.6333000000000001,50.51080000000003,14.0,4.0,0.0,5.0,3.0,76.0,1.0,0.0,0.0,1.0,60.440000000000005,82.42669517402405,2.928226466735241,407.69791166915184
B-2780,"1,2,3-benzenetricarboxylic acid, 5-bromo-","InChI=1S/C9H5BrO6/c10-3-1-4(7(11)12)6(9(15)16)5(2-3)8(13)14/h1-2H,(H,11,12)(H,13,14)(H,15,16)",JSTKTNCNRDMHRQ-UHFFFAOYSA-N,O=C(O)c1cc(Br)cc(C(=O)O)c1C(=O)O,-1.4481,0.0,1,G1,289.03700000000003,1.5437,55.0199,16.0,3.0,3.0,7.0,3.0,84.0,1.0,0.0,0.0,1.0,111.9,97.2610446250475,3.6715095917744094,457.7677320309344
B-2787,orbencarb,"InChI=1S/C12H16ClNOS/c1-3-14(4-2)12(15)16-9-10-7-5-6-8-11(10)13/h5-8H,3-4,9H2,1-2H3",LLLFASISUZUJEQ-UHFFFAOYSA-N,CCN(CC)C(=O)SCc1ccccc1Cl,-4.031000000000001,0.0,1,G1,257.786,4.035000000000004,71.06400000000004,16.0,2.0,0.0,4.0,4.0,88.0,1.0,0.0,0.0,1.0,20.31,105.96878782837068,2.517561791459273,352.6269263952091
B-2788,prothiophos,"InChI=1S/C11H15Cl2O2PS2/c1-3-7-18-16(17,14-4-2)15-11-6-5-9(12)8-10(11)13/h5-6,8H,3-4,7H2,1-2H3",FITIWKDOCAUBQD-UHFFFAOYSA-N,CCCSP(=S)(OCC)Oc1ccc(Cl)cc1Cl,-6.693,0.0,1,G1,345.25300000000004,5.776400000000003,85.75000000000004,18.0,4.0,0.0,7.0,7.0,102.0,1.0,0.0,0.0,1.0,18.46,127.25468909782658,2.8510032626884056,443.0514311382
B-2795,"dl-alanine, n-(2-chlorophenyl)-","InChI=1S/C9H10ClNO2/c1-6(9(12)13)11-8-5-3-2-4-7(8)10/h2-6,11H,1H3,(H,12,13)",AWRNWLYWQPIEDM-UHFFFAOYSA-N,CC(Nc1ccccc1Cl)C(=O)O,-2.3271,0.0,1,G1,199.63699999999992,2.2249999999999996,52.172500000000014,13.0,2.0,2.0,4.0,3.0,70.0,1.0,0.0,0.0,1.0,49.33,81.33511372541629,2.742841851112674,314.2379407824652
B-2796,tebutam,"InChI=1S/C15H23NO/c1-12(2)16(14(17)15(3,4)5)11-13-9-7-6-8-10-13/h6-10,12H,11H2,1-5H3",RJKCKKDSSSRYCB-UHFFFAOYSA-N,CC(C)N(Cc1ccccc1)C(=O)C(C)(C)C,-2.4704,0.0,1,G1,233.35499999999996,3.4697000000000022,71.58300000000006,17.0,1.0,0.0,2.0,3.0,94.0,1.0,0.0,0.0,1.0,20.31,104.63723791931358,2.8515011521990226,362.2582515335872
B-2797,"butanoic acid, 4-(benzoylamino)-","InChI=1S/C11H13NO3/c13-10(14)7-4-8-12-11(15)9-5-2-1-3-6-9/h1-3,5-6H,4,7-8H2,(H,12,15)(H,13,14)",BOZHPKGNNJPZKV-UHFFFAOYSA-N,O=C(O)CCCNC(=O)c1ccccc1,-1.2025,0.0,1,G1,207.22900000000004,1.2812,55.645000000000024,15.0,2.0,2.0,4.0,5.0,80.0,1.0,0.0,0.0,1.0,66.4,87.92325382737161,2.2822700986859936,334.9460875329806
B-2800,sulprofos,"InChI=1S/C12H19O2PS3/c1-4-10-18-15(16,13-5-2)14-11-6-8-12(17-3)9-7-11/h6-9H,4-5,10H2,1-3H3",JXHJNEJVUNHLKO-UHFFFAOYSA-N,CCCSP(=S)(OCC)Oc1ccc(SC)cc1,-6.0171,0.0,1,G1,322.457,5.191500000000004,87.51100000000005,18.0,5.0,0.0,6.0,8.0,102.0,1.0,0.0,0.0,1.0,18.46,123.13620878382513,2.718332393655078,394.81392577347697
B-2801,"benzoic acid, 5-chloro-2-hydroxy-4-methyl-","InChI=1S/C8H7ClO3/c1-4-2-7(10)5(8(11)12)3-6(4)9/h2-3,10H,1H3,(H,11,12)",PNBKMRRXXVGPTJ-UHFFFAOYSA-N,Cc1cc(O)c(C(=O)O)cc1Cl,-3.1248,0.0,1,G1,186.594,2.05222,44.81310000000001,12.0,2.0,2.0,4.0,1.0,64.0,1.0,0.0,0.0,1.0,57.53,74.21454317960765,3.3258841466405986,333.3200121526738
B-2817,tiocarbazil,"InChI=1S/C16H25NOS/c1-5-13(3)17(14(4)6-2)16(18)19-12-15-10-8-7-9-11-15/h7-11,13-14H,5-6,12H2,1-4H3",PHSUVQBHRAWOQD-UHFFFAOYSA-N,CCC(C)N(C(=O)SCc1ccccc1)C(C)CC,-5.0484,0.0,1,G1,279.44899999999996,4.938800000000005,84.47800000000005,19.0,2.0,0.0,3.0,6.0,106.0,1.0,0.0,0.0,1.0,20.31,121.12529005907544,2.618166876903707,369.59513992621424
B-2818,"benzamide, 2-amino-3,5-dichloro-","InChI=1S/C7H6Cl2N2O/c8-3-1-4(7(11)12)6(10)5(9)2-3/h1-2H,10H2,(H2,11,12)",PRKRQUUATBDWTL-UHFFFAOYSA-N,NC(=O)c1cc(Cl)cc(Cl)c1N,-2.0814,0.0,1,G1,205.044,1.6745,49.3923,12.0,2.0,2.0,5.0,1.0,64.0,1.0,0.0,0.0,1.0,69.11,79.2441811817261,3.3738590108748685,338.423415200434
B-2821,"benzoic acid, 4-amino-, nonyl ester","InChI=1S/C16H25NO2/c1-2-3-4-5-6-7-8-13-19-16(18)14-9-11-15(17)12-10-14/h9-12H,2-8,13,17H2,1H3",KKGIDNSPWHBLLE-UHFFFAOYSA-N,CCCCCCCCCOC(=O)c1ccc(N)cc1,-6.0,0.0,1,G1,263.381,4.176200000000003,79.12990000000005,19.0,3.0,1.0,3.0,9.0,106.0,1.0,0.0,0.0,1.0,52.32,115.69578229002644,2.0584145644197127,359.5166119504802
B-2823,metoprolol,"InChI=1S/C15H25NO3/c1-12(2)16-10-14(17)11-19-15-6-4-13(5-7-15)8-9-18-3/h4-7,12,14,16-17H,8-11H2,1-3H3",IUBSYMUCCVWXPE-UHFFFAOYSA-N,COCCc1ccc(OCC(O)CNC(C)C)cc1,-1.1992,0.0,1,G1,267.36899999999997,1.6132,76.66250000000005,19.0,4.0,2.0,4.0,9.0,108.0,1.0,0.0,0.0,1.0,50.72,115.28706854388426,2.285695819256649,337.7488527229999
B-2826,"dl-phenylalanine, n-(aminocarbonyl)-","InChI=1S/C10H12N2O3/c11-10(15)12-8(9(13)14)6-7-4-2-1-3-5-7/h1-5,8H,6H2,(H,13,14)(H3,11,12,15)/p-1/t8-/m0/s1",IPWQOZCSQLTKOI-QMMMGPOBSA-M,NC(=O)N[C@@H](Cc1ccccc1)C(=O)[O-],-2.0958,0.0,1,G1,207.20899999999995,-0.9841000000000006,51.660100000000014,15.0,3.0,2.0,5.0,4.0,80.0,1.0,0.0,0.0,1.0,95.25,86.89820240998772,2.6701465380280394,350.94495041448823
B-2838,"acetic acid, (2-bromo-4,6-dimethylphenoxy)-","InChI=1S/C10H11BrO3/c1-6-3-7(2)10(8(11)4-6)14-5-9(12)13/h3-4H,5H2,1-2H3,(H,12,13)",XISIDZGSQIHSIK-UHFFFAOYSA-N,Cc1cc(C)c(OCC(=O)O)c(Br)c1,-3.1234,0.0,1,G1,259.099,2.5293400000000004,56.74680000000002,14.0,2.0,1.0,4.0,3.0,76.0,1.0,0.0,0.0,1.0,46.53,90.8280202644714,2.908171775988023,337.3798978826766
B-2850,"2-propenoic acid, 3-(2-ethoxyphenyl)-, (z)-","InChI=1S/C11H12O3/c1-2-14-10-6-4-3-5-9(10)7-8-11(12)13/h3-8H,2H2,1H3,(H,12,13)/b8-7-",UXTDCJJEJZCEBF-FPLPWBNLSA-N,CCOc1ccccc1/C=C\C(=O)O,-2.5234,0.0,1,G1,192.21399999999997,2.1831,54.28080000000002,14.0,2.0,1.0,3.0,4.0,74.0,1.0,0.0,0.0,1.0,46.53,82.63581174104242,2.888868796271823,342.1408100054958
B-2853,Diethatyl-ethyl,"InChI=1S/C16H22ClNO3/c1-4-12-8-7-9-13(5-2)16(12)18(14(19)10-17)11-15(20)21-6-3/h7-9H,4-6,10-11H2,1-3H3",WFKSADNZWSKCRZ-UHFFFAOYSA-N,CCOC(=O)CN(C(=O)CCl)c1c(CC)cccc1CC,-3.4727,0.0,1,G1,311.8090000000001,2.9463000000000017,84.90400000000005,21.0,3.0,0.0,5.0,7.0,116.0,1.0,0.0,0.0,1.0,46.61,130.58051359014252,3.2492163005389543,480.04549792659617
B-2860,dinocap,"InChI=1S/C18H24N2O6/c1-7-8-15(21)26-16-13(18(5,6)11-17(2,3)4)9-12(19(22)23)10-14(16)20(24)25/h7-10H,11H2,1-6H3/b8-7+",RDUUEJDFJHUJFG-BQYQJAHWSA-N,C/C=C/C(=O)Oc1c([N+](=O)[O-])cc([N+](=O)[O-])cc1C(C)(C)CC(C)(C)C,-4.9595,0.0,1,G1,364.3980000000001,4.698300000000004,97.29780000000008,26.0,6.0,0.0,8.0,6.0,142.0,1.0,0.0,0.0,1.0,112.58,151.70212423462223,3.735572871927495,759.680202737714
B-2867,"acetamide, 2-(acetylamino)-n-phenyl-","InChI=1S/C10H12N2O2/c1-8(13)11-7-10(14)12-9-5-3-2-4-6-9/h2-6H,7H2,1H3,(H,11,13)(H,12,14)",WTMBVEKOTAHGAB-UHFFFAOYSA-N,CC(=O)NCC(=O)Nc1ccccc1,-1.5678,0.0,1,G1,192.218,0.7611999999999997,53.75540000000002,14.0,2.0,2.0,4.0,3.0,74.0,1.0,0.0,0.0,1.0,58.2,82.31394014438703,2.3807618619125828,322.15370011260666
B-2870,ethyl 2-formamido-(phenylvinyl)acrylate,"InChI=1S/C14H15NO3/c1-2-18-14(17)13(15-11-16)10-6-9-12-7-4-3-5-8-12/h3-11H,2H2,1H3,(H,15,16)",RZONVOYARNZXEO-UHFFFAOYSA-N,CCOC(=O)C(=CC=Cc1ccccc1)NC=O,-3.3483,0.0,1,G1,245.278,1.8928,69.39170000000003,18.0,3.0,1.0,4.0,6.0,94.0,1.0,0.0,0.0,1.0,55.4,105.9581855835038,2.7366156564840383,449.3667252520633
B-2875,pendimethalin,"InChI=1S/C13H19N3O4/c1-5-10(6-2)14-12-11(15(17)18)7-8(3)9(4)13(12)16(19)20/h7,10,14H,5-6H2,1-4H3",CHIFOSRWCNZCFN-UHFFFAOYSA-N,CCC(CC)Nc1c([N+](=O)[O-])cc(C)c(C)c1[N+](=O)[O-],-5.9721,0.0189499999999998,2,G3,281.312,3.720340000000003,77.21750000000002,20.0,5.0,1.0,7.0,6.0,110.0,1.0,0.0,0.0,1.0,98.31,116.84181154888084,3.5394583935570507,538.9080729934254
B-2888,"acetamide, n-(4-ethoxy-2-methylphenyl)-","InChI=1S/C11H15NO2/c1-4-14-10-5-6-11(8(2)7-10)12-9(3)13/h5-7H,4H2,1-3H3,(H,12,13)",GWGGYWFWMFMBKT-UHFFFAOYSA-N,CCOc1ccc(NC(C)=O)c(C)c1,-1.839,0.0,1,G1,193.246,2.35212,56.65170000000003,14.0,2.0,1.0,3.0,3.0,76.0,1.0,0.0,0.0,1.0,38.33,84.08104320463869,2.836874086228987,334.05945825214303
B-2890,"benzaldehyde, 4-hydroxy-5-methoxy-2-methyl-","InChI=1S/C9H10O3/c1-6-3-8(11)9(12-2)4-7(6)5-10/h3-5,11H,1-2H3",MNMCHJAOXXQRID-UHFFFAOYSA-N,COc1cc(C=O)c(C)cc1O,-2.7435,0.0,1,G1,166.176,1.5217199999999995,44.78330000000002,12.0,3.0,1.0,3.0,2.0,64.0,1.0,0.0,0.0,1.0,46.53,70.59553054443344,3.2644189670751427,304.8871119487945
B-2902,"propanamide, 2-oxo-n-phenyl-","InChI=1S/C9H9NO2/c1-7(11)9(12)10-8-5-3-2-4-6-8/h2-6H,1H3,(H,10,12)",VOKLUGVCKPXDJE-UHFFFAOYSA-N,CC(=O)C(=O)Nc1ccccc1,-1.3676,0.0,1,G1,163.176,1.2141,45.75270000000002,12.0,2.0,1.0,3.0,2.0,62.0,1.0,0.0,0.0,1.0,46.17,70.39913584638235,2.6503977732748716,292.65666195744836
B-2903,"valeric acid, 5-(benzenesulfonyl-methyl-amino)-","InChI=1S/C12H17NO4S/c1-13(10-6-5-9-12(14)15)18(16,17)11-7-3-2-4-8-11/h2-4,7-8H,5-6,9-10H2,1H3,(H,14,15)",WFADZGFZNJEISA-UHFFFAOYSA-N,CN(CCCCC(=O)O)S(=O)(=O)c1ccccc1,-1.5585,0.0,1,G1,271.338,1.562,67.74460000000003,18.0,3.0,1.0,6.0,7.0,100.0,1.0,0.0,0.0,1.0,74.68,107.09742122073489,2.5559516996753286,484.05869136854454
B-2905,"phenol, 4-(2-aminoethyl)-2-nitro-","InChI=1S/C8H10N2O3/c9-4-3-6-1-2-8(11)7(5-6)10(12)13/h1-2,5,11H,3-4,9H2",IUCYCHQMRZWPGT-UHFFFAOYSA-N,NCCc1ccc(O)c([N+](=O)[O-])c1,-1.3399,0.0,1,G1,182.17899999999997,0.8015999999999999,47.51960000000001,13.0,4.0,2.0,5.0,3.0,70.0,1.0,0.0,0.0,1.0,89.38999999999999,74.9483875199987,3.0373108455333924,325.1652197817895
B-2915,"benzeneacetic acid, .alpha.-(acetyloxy)-, (r)-","InChI=1S/C10H10O4/c1-7(11)14-9(10(12)13)8-5-3-2-4-6-8/h2-6,9H,1H3,(H,12,13)/t9-/m1/s1",OBCUSTCTKLTMBX-SECBINFHSA-N,CC(=O)O[C@@H](C(=O)O)c1ccccc1,-1.2313,0.0,1,G1,194.186,1.3754000000000002,48.58480000000002,14.0,3.0,1.0,4.0,3.0,74.0,1.0,0.0,0.0,1.0,63.6,81.12199475887383,2.8895915446477933,331.23505186595935
B-2918,"1,3-benzenedicarboxylic acid, 4-sulfo-","InChI=1S/C8H6O7S/c9-7(10)4-1-2-6(16(13,14)15)5(3-4)8(11)12/h1-3H,(H,9,10)(H,11,12)(H,13,14,15)",JSYUFUJLFRBMEN-UHFFFAOYSA-N,O=C(O)c1ccc(S(=O)(=O)O)c(C(=O)O)c1,0.6087,0.0,1,G1,246.19599999999997,0.3297,50.1752,16.0,4.0,3.0,8.0,3.0,86.0,1.0,0.0,0.0,1.0,128.97,89.70143506281035,3.551357292442046,557.7495999941927
B-2920,metolachlor,"InChI=1S/C15H22ClNO2/c1-5-13-8-6-7-11(2)15(13)17(14(18)9-16)12(3)10-19-4/h6-8,12H,5,9-10H2,1-4H3",WVQBLGZPHOPPFO-UHFFFAOYSA-N,CCc1cccc(C)c1N(C(=O)CCl)C(C)COC,-2.7287,0.0,1,G1,283.7989999999999,3.164120000000002,80.10100000000004,19.0,2.0,0.0,4.0,6.0,106.0,1.0,0.0,0.0,1.0,29.54,120.05404937570214,3.2776937707403,434.153792738549
B-2927,cloethocarb,"InChI=1S/C11H14ClNO4/c1-13-11(14)17-9-6-4-3-5-8(9)16-10(7-12)15-2/h3-6,10H,7H2,1-2H3,(H,13,14)",PITWUHDDNUVBPT-UHFFFAOYSA-N,CNC(=O)Oc1ccccc1OC(CCl)OC,-2.3005,0.0,1,G1,259.68899999999996,1.9949,63.67070000000004,17.0,4.0,1.0,6.0,5.0,94.0,1.0,0.0,0.0,1.0,56.790000000000006,104.6113998905341,2.796916886110327,368.2439929254796
B-2962,prosulfocarb,"InChI=1S/C14H21NOS/c1-3-10-15(11-4-2)14(16)17-12-13-8-6-5-7-9-13/h5-9H,3-4,10-12H2,1-2H3",NQLVQOSNDJXLKG-UHFFFAOYSA-N,CCCN(CCC)C(=O)SCc1ccccc1,-4.2798,0.0,1,G1,251.395,4.161800000000003,75.28800000000005,17.0,2.0,0.0,3.0,6.0,94.0,1.0,0.0,0.0,1.0,20.31,108.39540583028224,2.412567787839603,320.25391154512306
B-2969,ibuproxam,"InChI=1S/C13H19NO2/c1-9(2)8-11-4-6-12(7-5-11)10(3)13(15)14-16/h4-7,9-10,16H,8H2,1-3H3,(H,14,15)",BYPIURIATSUHDW-UHFFFAOYSA-N,CC(C)Cc1ccc(C(C)C(=O)NO)cc1,-3.0439999999999996,0.0,1,G1,221.3,2.494,63.32820000000004,16.0,2.0,2.0,3.0,4.0,88.0,1.0,0.0,0.0,1.0,49.33,96.44565445559904,2.741815403505495,343.45515609339986
B-2971,mefluidide,"InChI=1S/C11H13F3N2O3S/c1-6-4-7(2)10(5-9(6)15-8(3)17)16-20(18,19)11(12,13)14/h4-5,16H,1-3H3,(H,15,17)",OKIBNKKYNPBDRS-UHFFFAOYSA-N,CC(=O)Nc1cc(NS(=O)(=O)C(F)(F)F)c(C)cc1C,-3.2365,0.0,1,G1,310.297,2.52334,68.81720000000001,20.0,3.0,2.0,9.0,3.0,112.0,1.0,0.0,0.0,1.0,75.27000000000001,113.77474225993365,3.231641615841965,639.0488142368544
B-2976,"benzamide, n-(2-amino-1,1-dimethyl-2-oxoethyl)-","InChI=1S/C11H14N2O2/c1-11(2,10(12)15)13-9(14)8-6-4-3-5-7-8/h3-7H,1-2H3,(H2,12,15)(H,13,14)",GNFOQSWHSQTXHR-UHFFFAOYSA-N,CC(C)(NC(=O)c1ccccc1)C(N)=O,-1.6154,0.0,1,G1,206.245,0.6803000000000001,57.181600000000024,15.0,2.0,2.0,4.0,3.0,80.0,1.0,0.0,0.0,1.0,72.19,88.46891077218831,2.770474696152145,371.4341282999037
B-2977,"1,2,3-trichloro-4-methoxybenzene","InChI=1S/C7H5Cl3O/c1-11-5-3-2-4(8)6(9)7(5)10/h2-3H,1H3",FRQUNVLMWIYOLV-UHFFFAOYSA-N,COc1ccc(Cl)c(Cl)c1Cl,-4.2918,0.0,1,G1,211.475,3.655400000000001,48.024000000000015,11.0,1.0,0.0,4.0,1.0,60.0,1.0,0.0,0.0,1.0,9.23,79.81968914404547,3.249228926486637,272.63335062299745
B-2983,"1,3-benzenediol, 5-(methylthio)-","InChI=1S/C7H8O2S/c1-10-7-3-5(8)2-6(9)4-7/h2-4,8-9H,1H3",QHMRZVIHLYUTOF-UHFFFAOYSA-N,CSc1cc(O)cc(O)c1,-1.7957,0.0,1,G1,156.206,1.8196999999999997,41.55260000000002,10.0,3.0,2.0,3.0,1.0,54.0,1.0,0.0,0.0,1.0,40.46,63.50792276365084,3.061688151345299,214.79775799182192
B-2984,"1,3-benzenediol, 5-(butylthio)-","InChI=1S/C10H14O2S/c1-2-3-4-13-10-6-8(11)5-9(12)7-10/h5-7,11-12H,2-4H2,1H3",OBUQICZSPJTRQI-UHFFFAOYSA-N,CCCCSc1cc(O)cc(O)c1,-2.5191,0.0,1,G1,198.287,2.990000000000002,55.40360000000004,13.0,3.0,2.0,3.0,4.0,72.0,1.0,0.0,0.0,1.0,40.46,82.60274910684068,2.5564009880289884,253.37729766367792
B-3010,"benzenepropanal, .alpha.-oxo-","InChI=1S/C9H8O2/c10-7-9(11)6-8-4-2-1-3-5-8/h1-5,7H,6H2",OFMBSIAKTAZWIE-UHFFFAOYSA-N,O=CC(=O)Cc1ccccc1,-2.1707,0.0,1,G1,148.161,0.9971,41.21700000000002,11.0,2.0,0.0,2.0,3.0,56.0,1.0,0.0,0.0,1.0,34.14,64.84927366277431,2.647835114505797,251.52506007307375
B-3017,tolclofos-methyl,"InChI=1S/C9H11Cl2O3PS/c1-6-4-7(10)9(8(11)5-6)14-15(16,12-2)13-3/h4-5H,1-3H3",OBZIQQJJIKNWNO-UHFFFAOYSA-N,COP(=S)(OC)Oc1c(Cl)cc(C)cc1Cl,-5.4374,0.2198000000000002,2,G3,301.131,4.197920000000002,70.13000000000002,16.0,4.0,0.0,7.0,4.0,90.0,1.0,0.0,0.0,1.0,27.69,109.85332570818376,3.1085506823829836,407.7574288999409
B-3019,"3,4,5-trichloro-2-methoxyphenol","InChI=1S/C7H5Cl3O2/c1-12-7-4(11)2-3(8)5(9)6(7)10/h2,11H,1H3",RKEHLKXRUVUBJN-UHFFFAOYSA-N,COc1c(O)cc(Cl)c(Cl)c1Cl,-2.8712,0.0,1,G1,227.474,3.3610000000000007,49.688800000000015,12.0,2.0,1.0,5.0,1.0,66.0,1.0,0.0,0.0,1.0,29.46,84.61392289624148,3.4044783988899967,312.0100650052086
B-3025,"acetamide, n-[2-(benzoyloxy)ethyl]-n-methyl-","InChI=1S/C12H15NO3/c1-10(14)13(2)8-9-16-12(15)11-6-4-3-5-7-11/h3-7H,8-9H2,1-2H3",XPLCQMPBJPQJNU-UHFFFAOYSA-N,CC(=O)N(C)CCOC(=O)c1ccccc1,-0.8494,0.0,1,G1,221.256,1.3217,60.035500000000035,16.0,3.0,0.0,4.0,4.0,86.0,1.0,0.0,0.0,1.0,46.61,94.8174789056744,2.341729508317204,361.7864391863981
B-3034,"benzenesulfonic acid, 3-amino-2,4,6-tribromo-","InChI=1S/C6H4Br3NO3S/c7-2-1-3(8)6(14(11,12)13)4(9)5(2)10/h1H,10H2,(H,11,12,13)",UDUMKWWIWPPSHW-UHFFFAOYSA-N,Nc1c(Br)cc(Br)c(S(=O)(=O)O)c1Br,-0.4888,0.0,1,G1,409.881,2.803000000000001,63.769,14.0,3.0,2.0,8.0,1.0,78.0,1.0,0.0,0.0,1.0,80.39,106.00257264347437,3.700409413412392,485.58536344623127
B-3045,"2-propenoic acid, 3-(2-ethoxyphenyl)-, (e)-","InChI=1S/C11H12O3/c1-2-14-10-6-4-3-5-9(10)7-8-11(12)13/h3-8H,2H2,1H3,(H,12,13)/p-1/b8-7+",UXTDCJJEJZCEBF-BQYQJAHWSA-M,CCOc1ccccc1/C=C/C(=O)[O-],-3.3248,0.0,1,G1,191.20599999999996,0.8483999999999998,51.65200000000002,14.0,3.0,0.0,3.0,4.0,74.0,1.0,0.0,0.0,1.0,49.36,82.63581174104242,2.888868796271823,342.1408100054958
B-3051,iopamidol,"InChI=1S/C17H22I3N3O8/c1-6(28)15(29)23-14-12(19)9(16(30)21-7(2-24)3-25)11(18)10(13(14)20)17(31)22-8(4-26)5-27/h6-8,24-28H,2-5H2,1H3,(H,21,30)(H,22,31)(H,23,29)/t6-/m0/s1",XQZXYNRDCRIARQ-LURJTMIESA-N,C[C@H](O)C(=O)Nc1c(I)c(C(=O)NC(CO)CO)c(I)c(C(=O)NC(CO)CO)c1I,-0.7443,0.0,1,G1,777.0880000000001,-1.0143000000000004,135.75509999999997,31.0,8.0,8.0,14.0,10.0,174.0,1.0,0.0,0.0,1.0,188.45,218.33660235292604,3.662660443416784,776.3251592607854
B-3058,"phosphorothioic acid, o-(dichloro(methylthio)phe","InChI=1S/C11H15Cl2O3PS2/c1-4-14-17(18,15-5-2)16-8-6-9(12)11(13)10(7-8)19-3/h6-7H,4-5H2,1-3H3",SBLPWPLKGFWLKK-UHFFFAOYSA-N,CCOP(=S)(OCC)Oc1cc(Cl)c(Cl)c(SC)c1,-6.0807,0.0,1,G1,361.25200000000007,5.391600000000003,86.40800000000003,19.0,5.0,0.0,8.0,7.0,108.0,1.0,0.0,0.0,1.0,27.69,132.7063199623422,3.0301192617138946,475.2532565788354
B-3060,"benzeneacetic acid, .alpha.-(ethylthio)-","InChI=1S/C10H12O2S/c1-2-13-9(10(11)12)8-6-4-3-5-7-8/h3-7,9H,2H2,1H3,(H,11,12)",MMJGSXQXUWECJL-UHFFFAOYSA-N,CCSC(C(=O)O)c1ccccc1,-1.5686,0.0,1,G1,196.271,2.5654000000000003,54.95080000000003,13.0,2.0,1.0,3.0,4.0,70.0,1.0,0.0,0.0,1.0,37.3,81.97003745468842,2.822632605025796,271.51305165552594
B-3073,"benzamide, 2,5-dihydroxy-n-(2-hydroxyethyl)-","InChI=1S/C9H11NO4/c11-4-3-10-9(14)7-5-6(12)1-2-8(7)13/h1-2,5,11-13H,3-4H2,(H,10,14)",YNCOLLPSNIHBGO-UHFFFAOYSA-N,O=C(NCCO)c1cc(O)ccc1O,-0.5436,0.0,1,G1,197.19,-0.1800999999999999,49.190600000000025,14.0,4.0,4.0,5.0,3.0,76.0,1.0,0.0,0.0,1.0,89.79,80.62031500292663,2.829841319109593,337.58388104417253