ID,Name,InChI,InChIKey,SMILES,Solubility,SD,Occurrences,Group,MolWt,MolLogP,MolMR,HeavyAtomCount,NumHAcceptors,NumHDonors,NumHeteroatoms,NumRotatableBonds,NumValenceElectrons,NumAromaticRings,NumSaturatedRings,NumAliphaticRings,RingCount,TPSA,LabuteASA,BalabanJ,BertzCT
A-1145,"2-methyl-4,6-bis(methylsulfanyl)benzene-1,3-diamine; 4-methyl-2,6-bis(methylsulfanyl)benzene-1,3-diamine","InChI=1S/C9H14N2S2/c1-5-8(10)6(12-2)4-7(13-3)9(5)11/h4H,10-11H2,1-3H3",TXDBDYPHJXUHEO-UHFFFAOYSA-N,CSc1cc(SC)c(N)c(C)c1N,-2.8569254582999997,0.1323506247499999,2,G3,214.35899999999995,2.6032200000000003,63.56580000000001,13.0,4.0,2.0,4.0,2.0,72.0,1.0,0.0,0.0,1.0,52.04,87.4522309074427,3.3617208875512854,295.6310072666452
A-1148,"4-allyl-1,2-dimethoxybenzene","InChI=1S/C11H14O2/c1-4-5-9-6-7-10(12-2)11(8-9)13-3/h4-8H,1-3H3/b5-4+",NNWHUJCUHAELCL-SNAWJCMRSA-N,C/C=C/c1ccc(OC)c(OC)c1,-2.7782267945,0.0,1,G1,178.23099999999997,2.736900000000001,54.25400000000003,13.0,2.0,0.0,2.0,3.0,70.0,1.0,0.0,0.0,1.0,18.46,78.7936011183095,3.050120428414819,302.9586304882723
A-1155,"1,3-dimethyl benzene-1,3-dicarboxylate","InChI=1S/C10H10O4/c1-13-9(11)7-4-3-5-8(6-7)10(12)14-2/h3-6H,1-2H3",VNGOYPQMJFJDLV-UHFFFAOYSA-N,COC(=O)c1cccc(C(=O)OC)c1,-2.825819918,0.0,1,G1,194.186,1.2597999999999998,49.12100000000002,14.0,4.0,0.0,4.0,2.0,74.0,1.0,0.0,0.0,1.0,52.60000000000001,81.44130623618467,3.006336626481918,325.64456038916694
A-1156,ethenylbenzene,"InChI=1S/C8H8/c1-2-8-6-4-3-5-7-8/h2-7H,1H2",PPBRXRYQALVLMV-UHFFFAOYSA-N,C=Cc1ccccc1,-2.5552696161000004,0.1048084297292434,7,G5,104.15199999999996,2.3296,36.53300000000001,8.0,0.0,0.0,0.0,1.0,40.0,1.0,0.0,0.0,1.0,0.0,49.47168431610592,2.9910469146846212,162.65300142116237
A-1161,2-benzylheptan-1-ol,"InChI=1S/C14H22O/c1-2-3-5-10-14(12-15)11-13-8-6-4-7-9-13/h4,6-9,14-15H,2-3,5,10-12H2,1H3",CGMOOAUESLSUKM-UHFFFAOYSA-N,CCCCCC(CO)Cc1ccccc1,-3.8432685623,0.0,1,G1,206.329,3.417900000000002,64.86380000000005,15.0,1.0,1.0,1.0,7.0,84.0,1.0,0.0,0.0,1.0,20.23,93.14517378686588,2.331616495458083,242.77542995949491
A-1170,3-ethoxy-4-hydroxybenzaldehyde,"InChI=1S/C9H10O3/c1-2-12-9-5-7(6-10)3-4-8(9)11/h3-6,11H,2H2,1H3",CBOQJANXLMLOSS-UHFFFAOYSA-N,CCOc1cc(C=O)ccc1O,-1.7642022678,0.0,1,G1,166.176,1.6034,44.66330000000002,12.0,3.0,1.0,3.0,3.0,64.0,1.0,0.0,0.0,1.0,46.53,70.59553054443344,2.9880700814121135,281.102178757748
A-1172,4-phenylbutan-2-one,"InChI=1S/C10H12O/c1-9(11)7-8-10-5-3-2-4-6-10/h2-6H,7-8H2,1H3",AKGGYBADQZYZPD-UHFFFAOYSA-N,CC(=O)CCc1ccccc1,-1.7160179957,0.0,1,G1,148.20499999999998,2.2081999999999997,45.44400000000003,11.0,1.0,0.0,1.0,3.0,58.0,1.0,0.0,0.0,1.0,17.07,67.05269367712717,2.453018743531937,225.8879099803407
A-1173,"N-(4-chloro-2,5-dimethoxyphenyl)-3-oxobutanamide","InChI=1S/C12H14ClNO4/c1-7(15)4-12(16)14-9-6-10(17-2)8(13)5-11(9)18-3/h5-6H,4H2,1-3H3,(H,14,16)",MOUVJGIRLPZEES-UHFFFAOYSA-N,COc1cc(NC(=O)CC(C)=O)c(OC)cc1Cl,-2.9792447783999996,0.0,1,G1,271.7,2.2748,68.48370000000003,18.0,4.0,1.0,6.0,5.0,98.0,1.0,0.0,0.0,1.0,64.63,110.0243188754676,2.9903385951462527,473.39036914788875
A-1174,3-phenylprop-2-en-1-yl acetate,"InChI=1S/C11H12O2/c1-10(12)13-9-5-8-11-6-3-2-4-7-11/h2-8H,9H2,1H3/b8-5+",WJSDHUCWMSHDCR-VMPITWQZSA-N,CC(=O)OC/C=C/c1ccccc1,-2.7927245342,0.0211129987499998,2,G3,176.215,2.2629,52.10900000000003,13.0,2.0,0.0,2.0,3.0,68.0,1.0,0.0,0.0,1.0,26.3,77.84157798884641,2.3677193200379056,288.21840549259923
A-1179,2-hydroxypropanoic acid - 5-{[(2-ethylhexyl)carbamoyl]oxy}-2-methylphenyl [2-(dimethylamino)ethyl]carbamate (1:1) (non-preferred name),"InChI=1S/C21H35N3O4.C3H6O3/c1-6-8-9-17(7-2)15-28-20(25)22-18-11-10-16(3)19(14-18)23-21(26)27-13-12-24(4)5;1-2(4)3(5)6/h10-11,14,17H,6-9,12-13,15H2,1-5H3,(H,22,25)(H,23,26);2,4H,1H3,(H,5,6)",HYNJGJWCXRMUIG-UHFFFAOYSA-N,CC(O)C(=O)O.CCCCC(CC)COC(=O)Nc1ccc(C)c(NC(=O)OCCN(C)C)c1,-0.2351938248,0.0,1,G1,483.6060000000003,4.321820000000003,132.29700000000008,34.0,7.0,4.0,10.0,12.0,194.0,1.0,0.0,0.0,1.0,137.43,202.1658746331217,1.598928155187427e-06,754.0821649968749
A-1185,3-amino-4-hydroxybenzene-1-sulfonic acid,"InChI=1S/C6H7NO4S/c7-5-3-4(12(9,10)11)1-2-6(5)8/h1-3,8H,7H2,(H,9,10,11)",ULUIMLJNTCECJU-UHFFFAOYSA-N,Nc1cc(S(=O)(=O)O)ccc1O,-1.8297447369,0.0,1,G1,189.192,0.2210999999999999,42.3338,12.0,4.0,3.0,6.0,1.0,66.0,1.0,0.0,0.0,1.0,100.62,69.19416357874631,3.327295999016508,398.0091542968489
A-1205,1-chloro-3-nitrobenzene,InChI=1S/C6H4ClNO2/c7-5-2-1-3-6(4-5)8(9)10/h1-4H,KMAQZIILEGKYQZ-UHFFFAOYSA-N,O=[N+]([O-])c1cccc(Cl)c1,-2.7612722995,0.07745098,2,G3,157.55599999999998,2.2482000000000006,38.106400000000015,10.0,2.0,0.0,4.0,1.0,52.0,1.0,0.0,0.0,1.0,43.14,62.387645068878435,3.069899265759275,261.67965837655686
A-1211,N-ethylaniline,"InChI=1S/C8H11N/c1-2-9-8-6-4-3-5-7-8/h3-7,9H,2H2,1H3",OJGMBLNIHDZDGS-UHFFFAOYSA-N,CCNc1ccccc1,-1.6520779355,0.0246733607999999,2,G3,121.18299999999996,2.1184,40.60570000000001,9.0,1.0,1.0,1.0,2.0,48.0,1.0,0.0,0.0,1.0,12.03,55.71114953189822,2.61489994009295,157.4784207656209
A-1214,"1,2-dichloro-4-methylbenzene","InChI=1S/C7H6Cl2/c1-5-2-3-6(8)7(9)4-5/h2-4H,1H3",WYUIWKFIFOJVKW-UHFFFAOYSA-N,Cc1ccc(Cl)c(Cl)c1,-3.7755457257,0.0081771371500001,2,G3,161.031,3.301820000000001,41.19900000000002,9.0,0.0,0.0,2.0,0.0,48.0,1.0,0.0,0.0,1.0,0.0,64.40287768765691,3.1716780304409156,218.15617759993404
A-1225,methyl 2-methylbenzoate,"InChI=1S/C9H10O2/c1-7-5-3-4-6-8(7)9(10)11-2/h3-6H,1-2H3",WVWZECQNFWFVFW-UHFFFAOYSA-N,COC(=O)c1ccccc1C,-1.7566476759,0.0,1,G1,150.17699999999996,1.78162,42.518500000000024,11.0,2.0,0.0,2.0,1.0,58.0,1.0,0.0,0.0,1.0,26.3,65.80129679223742,3.032662155800657,266.0201725709103
A-1228,3-aminophenol,"InChI=1S/C6H7NO/c7-5-2-1-3-6(8)4-5/h1-4,8H,7H2",CWLKGDAVCFYWJK-UHFFFAOYSA-N,Nc1cccc(O)c1,-0.6229628479,0.0614307496492846,5,G5,109.128,0.9744,32.5192,8.0,2.0,2.0,2.0,0.0,42.0,1.0,0.0,0.0,1.0,46.25,47.56552756870569,3.077660437970554,168.38833891467198
A-1233,"1,3-dichloro-2-methylbenzene","InChI=1S/C7H6Cl2/c1-5-6(8)3-2-4-7(5)9/h2-4H,1H3",DMEDNTFWIHCBRK-UHFFFAOYSA-N,Cc1c(Cl)cccc1Cl,-3.7919361419,0.0,1,G1,161.03099999999998,3.301820000000001,41.19900000000001,9.0,0.0,0.0,2.0,0.0,48.0,1.0,0.0,0.0,1.0,0.0,64.40287768765691,3.2478347337367035,197.90617759993407
A-1236,4-methyl-3-nitrobenzoic acid,"InChI=1S/C8H7NO4/c1-5-2-3-6(8(10)11)4-7(5)9(12)13/h2-4H,1H3,(H,10,11)",BBEWSMNRCUXQRF-UHFFFAOYSA-N,Cc1ccc(C(=O)O)cc1[N+](=O)[O-],-2.8480980227,0.0,1,G1,181.147,1.60142,44.79270000000001,13.0,3.0,1.0,5.0,2.0,68.0,1.0,0.0,0.0,1.0,80.44,73.77001892302977,3.267052212361692,372.40681802872274
A-1237,3-amino-4-methoxybenzenesulfonic acid,"InChI=1S/C7H9NO4S/c1-12-7-3-2-5(4-6(7)8)13(9,10)11/h2-4H,8H2,1H3,(H,9,10,11)",FLIOATBXVNLPLK-UHFFFAOYSA-N,COc1ccc(S(=O)(=O)O)cc1N,-0.8997243446,0.5430103353,2,G2,203.219,0.5241,47.22100000000001,13.0,4.0,2.0,6.0,2.0,72.0,1.0,0.0,0.0,1.0,89.62,75.87841717045377,3.2581908733813196,412.5007607986796
A-1246,3-chloro-4-methylaniline,"InChI=1S/C7H8ClN/c1-5-2-3-6(9)4-7(5)8/h2-4H,9H2,1H3",RQKFYFNZSHWXAW-UHFFFAOYSA-N,Cc1ccc(N)cc1Cl,-1.7531263116999998,0.0126529325999998,2,G3,141.601,2.23062,40.60140000000001,9.0,1.0,1.0,2.0,0.0,48.0,1.0,0.0,0.0,1.0,26.02,59.43950215778795,3.171678030440915,220.15617759993404
A-1254,"2,4-dichloro-1-methylbenzene","InChI=1S/C7H6Cl2/c1-5-2-3-6(8)4-7(5)9/h2-4H,1H3",FUNUTBJJKQIVSY-UHFFFAOYSA-N,Cc1ccc(Cl)cc1Cl,-3.8089694812,0.2474250108500002,2,G3,161.031,3.301820000000001,41.19900000000002,9.0,0.0,0.0,2.0,0.0,48.0,1.0,0.0,0.0,1.0,0.0,64.40287768765691,3.171678030440915,218.15617759993404
A-1256,1-methoxy-2-methylbenzene,"InChI=1S/C8H10O/c1-7-5-3-4-6-8(7)9-2/h3-6H,1-2H3",DTFKRVXLBCAIOZ-UHFFFAOYSA-N,COc1ccccc1C,-2.6890833932,0.0,1,G1,122.16699999999996,2.0036199999999997,37.73100000000001,9.0,1.0,0.0,1.0,1.0,48.0,1.0,0.0,0.0,1.0,9.23,55.274832577797056,3.0065240073265844,193.51405299160075
A-1258,"(2,4-dichlorophenyl)acetic acid","InChI=1S/C8H6Cl2O2/c9-6-2-1-5(3-8(11)12)7(10)4-6/h1-2,4H,3H2,(H,11,12)",GXMWLJKTGBZMBH-UHFFFAOYSA-N,O=C(O)Cc1ccc(Cl)cc1Cl,-2.9191416399000003,0.0881590670822446,3,G5,205.04,2.6205000000000007,47.801800000000014,12.0,1.0,1.0,4.0,2.0,64.0,1.0,0.0,0.0,1.0,37.3,79.7235756542933,2.93480212462999,309.92621196610224
A-1263,4-chlorobenzonitrile,InChI=1S/C7H4ClN/c8-7-3-1-6(5-9)2-4-7/h1-4H,GJNGXPDXRVXSEH-UHFFFAOYSA-N,N#Cc1ccc(Cl)cc1,-2.749354496,0.0,1,G1,137.56899999999996,2.211679999999999,36.167000000000016,9.0,1.0,0.0,2.0,0.0,44.0,1.0,0.0,0.0,1.0,23.79,58.49219114224395,3.05603839622726,232.0882179862608
A-1268,1-chloro-4-nitrobenzene,InChI=1S/C6H4ClNO2/c7-5-1-3-6(4-2-5)8(9)10/h1-4H,CZGCEKJOLUNIFY-UHFFFAOYSA-N,O=[N+]([O-])c1ccc(Cl)cc1,-2.8118286729000004,0.1361942370318745,5,G5,157.55599999999998,2.2482,38.106400000000015,10.0,2.0,0.0,4.0,1.0,52.0,1.0,0.0,0.0,1.0,43.14,62.387645068878435,3.003400684579818,244.4296583765568
A-1269,4-(propan-2-yl)benzaldehyde,"InChI=1S/C10H12O/c1-8(2)10-5-3-9(7-11)4-6-10/h3-8H,1-2H3",WTWBUQJHJGUZCY-UHFFFAOYSA-N,CC(C)c1ccc(C=O)cc1,-2.7852565820999997,0.3071968631999999,2,G3,148.20499999999998,2.6225000000000014,45.91850000000003,11.0,1.0,0.0,1.0,2.0,58.0,1.0,0.0,0.0,1.0,17.07,67.05269367712715,2.90982279990154,233.5546192881468
A-1274,1-(3-chlorophenyl)propan-1-one,"InChI=1S/C9H9ClO/c1-2-9(11)7-4-3-5-8(10)6-7/h3-6H,2H2,1H3",PQWGFUFROKIJBO-UHFFFAOYSA-N,CCC(=O)c1cccc(Cl)c1,-1.8467055699,0.0,1,G1,168.623,2.9327000000000014,46.073500000000024,11.0,1.0,0.0,2.0,2.0,58.0,1.0,0.0,0.0,1.0,17.07,70.99101778961223,2.957064034225712,268.0201725709103
A-1289,1-chloro-4-methoxybenzene,"InChI=1S/C7H7ClO/c1-9-7-4-2-6(8)3-5-7/h2-5H,1H3",YRGAYAGBVIXNAQ-UHFFFAOYSA-N,COc1ccc(Cl)cc1,-2.7793254939999996,0.0,1,G1,142.585,2.3486,38.00400000000001,9.0,1.0,0.0,2.0,1.0,48.0,1.0,0.0,0.0,1.0,9.23,59.213156690282126,2.881555877646136,180.61256853719752
A-1308,butylbenzene,"InChI=1S/C10H14/c1-3-9(2)10-7-5-4-6-8-10/h4-9H,3H2,1-2H3",ZJMWRROPUADPEA-UHFFFAOYSA-N,CCC(C)c1ccccc1,-3.7586078484,0.2643238784657511,7,G5,134.22199999999998,3.2001000000000017,45.14800000000003,10.0,0.0,0.0,0.0,2.0,54.0,1.0,0.0,0.0,1.0,0.0,62.89117157708339,2.746978188530898,176.4896154807834
A-1315,4-(trifluoromethyl)aniline,"InChI=1S/C7H6F3N/c8-7(9,10)5-1-3-6(11)4-2-5/h1-4H,11H2",ODGIMMLDVSWADK-UHFFFAOYSA-N,Nc1ccc(C(F)(F)F)cc1,-2.8473301434,0.0,1,G1,161.12599999999998,2.2876000000000003,35.856400000000015,11.0,1.0,1.0,4.0,0.0,60.0,1.0,0.0,0.0,1.0,26.02,61.63284213968499,2.993754788259927,236.8577532761268
A-1317,benzyltriethylazanium chloride,"InChI=1S/C13H22N.ClH/c1-4-14(5-2,6-3)12-13-10-8-7-9-11-13;/h7-11H,4-6,12H2,1-3H3;1H/q+1;/p-1",HTZCNXWZYVXIMZ-UHFFFAOYSA-M,CC[N+](CC)(CC)Cc1ccccc1.[Cl-],-0.0072656636,0.22454626555,2,G3,227.779,0.0671000000000014,62.02940000000005,15.0,0.0,0.0,2.0,5.0,86.0,1.0,0.0,0.0,1.0,0.0,100.10889632962136,1.959999277600274e-06,246.23361737284745
A-1329,4-(propan-2-yl)aniline,"InChI=1S/C9H13N/c1-7(2)8-3-5-9(10)6-4-8/h3-7H,10H2,1-2H3",LRTFPLFDLJYEKT-UHFFFAOYSA-N,CC(C)c1ccc(N)cc1,-1.7858311962,0.0,1,G1,135.20999999999998,2.3922000000000008,44.943400000000025,10.0,1.0,1.0,1.0,1.0,54.0,1.0,0.0,0.0,1.0,26.02,61.8661201596995,2.893762783606677,198.4731804794128
A-1333,4-methoxyaniline,"InChI=1S/C7H9NO/c1-9-7-4-2-6(8)3-5-7/h2-5H,8H2,1H3",BHAAPTBBJKJZER-UHFFFAOYSA-N,COc1ccc(N)cc1,-0.7480293677,0.01010169305,2,G3,123.155,1.2774,37.4064,9.0,2.0,1.0,2.0,1.0,48.0,1.0,0.0,0.0,1.0,35.25,54.24978116041317,2.881555877646136,180.61256853719752
A-1335,2-methoxy-5-nitroaniline,"InChI=1S/C7H8N2O3/c1-12-7-3-2-5(9(10)11)4-6(7)8/h2-4H,8H2,1H3",NIPDVSLAMPAWTP-UHFFFAOYSA-N,COc1ccc([N+](=O)[O-])cc1N,-1.8832793564,0.6408624202000001,2,G2,168.152,1.1856,44.06080000000001,12.0,4.0,1.0,5.0,2.0,64.0,1.0,0.0,0.0,1.0,78.38999999999999,68.90275688291297,3.0981803500525973,311.5198400095355
A-1339,"2,6-di-tert-butyl-4-(hydroxymethyl)phenol","InChI=1S/C15H24O2/c1-14(2,3)11-7-10(9-16)8-12(13(11)17)15(4,5)6/h7-8,16-17H,9H2,1-6H3",HNURKXXMYARGAY-UHFFFAOYSA-N,CC(C)(C)c1cc(CO)cc(C(C)(C)C)c1O,-4.0127821042,0.0,1,G1,236.35499999999996,3.4795000000000025,71.42960000000005,17.0,2.0,2.0,2.0,1.0,96.0,1.0,0.0,0.0,1.0,40.46,104.30434965345846,3.5327462243952046,370.9056007735592
A-1341,[2-(3-methylbutoxy)ethyl]benzene,"InChI=1S/C13H20O/c1-12(2)8-10-14-11-9-13-6-4-3-5-7-13/h3-7,12H,8-11H2,1-2H3",BHQBQWOZHYUVTL-UHFFFAOYSA-N,CC(C)CCOCCc1ccccc1,-3.9337357827,0.0,1,G1,192.302,3.291800000000002,60.42000000000005,14.0,1.0,0.0,1.0,6.0,78.0,1.0,0.0,0.0,1.0,9.23,87.09954314978012,2.047929619325098,228.2506956971763
A-1348,2-methoxy-4-(methoxymethyl)phenol,"InChI=1S/C9H12O3/c1-11-6-7-3-4-8(10)9(5-7)12-2/h3-5,10H,6H2,1-2H3",USDDPDQEVLAOBO-UHFFFAOYSA-N,COCc1ccc(O)c(OC)c1,-1.8934476814,0.0,1,G1,168.19199999999998,1.5472,45.37180000000003,12.0,3.0,1.0,3.0,3.0,66.0,1.0,0.0,0.0,1.0,38.69,71.54755367389656,2.8886510104905314,257.95060242335626
A-1351,2-tert-Butyl-4-methoxyphenol,"InChI=1S/C11H16O2/c1-11(2,3)9-7-8(13-4)5-6-10(9)12/h5-7,12H,1-4H3",MRBKEAMVRSLQPH-UHFFFAOYSA-N,COc1ccc(O)c(C(C)(C)C)c1,-2.9274884417,0.0,1,G1,180.24699999999996,2.6983000000000006,53.35880000000004,13.0,2.0,1.0,2.0,1.0,72.0,1.0,0.0,0.0,1.0,29.46,79.16389267318289,3.1917026765307637,297.44885548394535
A-1355,"3,4-dihydroxy-5-nitrobenzaldehyde","InChI=1S/C7H5NO5/c9-3-4-1-5(8(12)13)7(11)6(10)2-4/h1-3,10-11H",BBFJODMCHICIAA-UHFFFAOYSA-N,O=Cc1cc(O)c(O)c([N+](=O)[O-])c1,-1.937833911,0.0,1,G1,183.11899999999997,0.8184999999999998,41.81350000000001,13.0,5.0,2.0,6.0,2.0,68.0,1.0,0.0,0.0,1.0,100.67,72.19931056082916,3.4088659239693615,373.3908055977192
A-1357,ethyl 2-methyl-2-phenylpropanoate,"InChI=1S/C12H16O2/c1-4-14-11(13)12(2,3)10-8-6-5-7-9-10/h5-9H,4H2,1-3H3",OFYSAFPKXXTYLU-UHFFFAOYSA-N,CCOC(=O)C(C)(C)c1ccccc1,-3.045838317,0.0,1,G1,192.258,2.5273000000000003,56.10100000000004,14.0,2.0,0.0,2.0,3.0,76.0,1.0,0.0,0.0,1.0,26.3,84.89612313542726,2.901578702413373,301.3575848525983
A-1360,4-methyl-2-nitroaniline,"InChI=1S/C7H8N2O2/c1-5-2-3-6(8)7(4-5)9(10)11/h2-4H,8H2,1H3",DLURHXYXQYMPLT-UHFFFAOYSA-N,Cc1ccc(N)c([N+](=O)[O-])c1,-1.860061225,0.0,1,G1,152.15300000000002,1.48542,42.24580000000001,11.0,3.0,1.0,4.0,1.0,58.0,1.0,0.0,0.0,1.0,69.16,63.789211653406085,3.232208870305491,296.4920897763861
A-1362,methyl benzoate,"InChI=1S/C8H8O2/c1-10-8(9)7-5-3-2-4-6-7/h2-6H,1H3",QPJVMBTYPHYUOC-UHFFFAOYSA-N,COC(=O)c1ccccc1,-1.8117983509,0.01910082455,2,G3,136.14999999999998,1.4732,37.781500000000015,10.0,2.0,0.0,2.0,1.0,52.0,1.0,0.0,0.0,1.0,26.3,59.43635467784082,2.8526279288191434,215.9590174505521
A-1370,2-[4-(2-methylpropyl)phenyl]propanoic acid,"InChI=1S/C13H18O2/c1-9(2)8-11-4-6-12(7-5-11)10(3)13(14)15/h4-7,9-10H,8H2,1-3H3,(H,14,15)",HEFNNWSXXWATRW-UHFFFAOYSA-N,CC(C)Cc1ccc(C(C)C(=O)O)cc1,-3.992248354700001,0.3177508636342036,4,G5,206.28499999999997,3.073200000000001,61.03480000000004,15.0,1.0,1.0,2.0,4.0,82.0,1.0,0.0,0.0,1.0,37.3,90.941753772513,2.7590371332701524,324.8941190021566
A-1377,1-(3-methoxyphenyl)ethan-1-one,"InChI=1S/C9H10O2/c1-7(10)8-4-3-5-9(6-8)11-2/h3-6H,1-2H3",BAYUSCHCCGXLAY-UHFFFAOYSA-N,COc1cccc(C(C)=O)c1,-1.8691073865,0.0721451988000001,2,G3,150.17699999999996,1.8978,42.99850000000002,11.0,2.0,0.0,2.0,2.0,58.0,1.0,0.0,0.0,1.0,26.3,65.80129679223744,3.0058892189147386,266.0201725709103
A-1387,"2,5-dichlorophenol","InChI=1S/C6H4Cl2O/c7-4-1-2-5(8)6(9)3-4/h1-3,9H",RANCECPPZPIPNO-UHFFFAOYSA-N,Oc1cc(Cl)ccc1Cl,-1.9111656018,0.0,1,G1,163.003,2.699,38.12680000000001,9.0,1.0,1.0,3.0,0.0,48.0,1.0,0.0,0.0,1.0,20.23,62.83216932545633,3.1716780304409156,222.29788705001033
A-1391,4-amino-5-chloro-N-[2-(diethylamino)ethyl]-2-methoxybenzamide,"InChI=1S/C14H22ClN3O2.ClH/c1-4-18(5-2)7-6-17-14(19)10-8-11(15)12(16)9-13(10)20-3;/h8-9H,4-7,16H2,1-3H3,(H,17,19);1H",RVFUNJWWXKCWNS-UHFFFAOYSA-N,CCN(CC)CCNC(=O)c1cc(Cl)c(N)cc1OC.[Cl-].[H+],-3.2256490876,0.0,1,G1,336.26300000000015,-0.8810999999999976,83.64960000000004,21.0,4.0,2.0,7.0,7.0,120.0,1.0,0.0,0.0,1.0,67.59,138.21675176397125,0.0,471.6463260670472
A-1400,3-methyl-4-propan-2-ylphenol,"InChI=1S/C10H14O/c1-7(2)10-5-4-9(11)6-8(10)3/h4-7,11H,1-3H3",IJALWSVNUBBQRA-UHFFFAOYSA-N,Cc1cc(O)ccc1C(C)C,-2.8545113539999996,0.0,1,G1,150.22099999999995,2.824020000000001,46.93280000000003,11.0,1.0,1.0,1.0,1.0,60.0,1.0,0.0,0.0,1.0,20.23,67.6854053292794,3.092719758380193,251.0497317859833
A-1449,2-ethylhexyl 4-aminobenzoate,"InChI=1S/C15H23NO2/c1-3-5-6-12(4-2)11-18-15(17)13-7-9-14(16)10-8-13/h7-10,12H,3-6,11,16H2,1-2H3",ZJQXUTDROPGVLH-UHFFFAOYSA-N,CCCCC(CC)COC(=O)c1ccc(N)cc1,-5.0543936585,0.0,1,G1,249.354,3.642000000000002,74.44290000000004,18.0,3.0,1.0,3.0,7.0,100.0,1.0,0.0,0.0,1.0,52.32,109.3308401756298,2.417004050753797,359.2612802868859
A-1461,1-chloro-2-(trichloromethyl)benzene,"InChI=1S/C7H4Cl4/c8-6-4-2-1-3-5(6)7(9,10)11/h1-4H",MFHPYLFZSCSNST-UHFFFAOYSA-N,Clc1ccccc1C(Cl)(Cl)Cl,-5.0439330965,0.0,1,G1,229.921,4.1667000000000005,50.689000000000014,11.0,0.0,0.0,4.0,0.0,60.0,1.0,0.0,0.0,1.0,0.0,85.00941014142025,3.1411091905317954,250.86264077829023
A-1466,2-phenylhexanenitrile,"InChI=1S/C12H15N/c1-2-3-7-12(10-13)11-8-5-4-6-9-11/h4-6,8-9,12H,2-3,7H2,1H3",OTERUZJEJFMEEB-UHFFFAOYSA-N,CCCCC(C#N)c1ccccc1,-3.6623544532,0.0,1,G1,173.259,3.4839800000000025,54.32100000000004,13.0,1.0,0.0,1.0,4.0,68.0,1.0,0.0,0.0,1.0,23.79,80.01363548734534,2.6330200426331443,270.9259927529593
A-1474,hexyl 2-hydroxybenzoate,"InChI=1S/C13H18O3/c1-2-3-4-7-10-16-13(15)11-8-5-6-9-12(11)14/h5-6,8-9,14H,2-4,7,10H2,1H3",DUKPKQFHJQGTGU-UHFFFAOYSA-N,CCCCCCOC(=O)c1ccccc1O,-5.0458782075999995,0.0,1,G1,222.284,3.129300000000002,62.53130000000005,16.0,3.0,1.0,3.0,6.0,88.0,1.0,0.0,0.0,1.0,46.53,96.0552990020199,2.3297758132802646,333.70452081251267
A-1479,4-[(2-chloroethyl)(ethyl)amino]benzaldehyde,"InChI=1S/C11H14ClNO/c1-2-13(8-7-12)11-5-3-10(9-14)4-6-11/h3-6,9H,2,7-8H2,1H3",MFUFJCIFNHFEDW-UHFFFAOYSA-N,CCN(CCCl)c1ccc(C=O)cc1,-3.0334483747000003,0.0,1,G1,211.69200000000004,2.5642000000000005,60.43650000000003,14.0,2.0,0.0,3.0,5.0,76.0,1.0,0.0,0.0,1.0,20.31,89.48073568860883,2.7737802191828713,283.84393503173874
A-1496,3-(methoxycarbonyl)-5-nitrobenzoic acid,"InChI=1S/C9H7NO6/c1-16-9(13)6-2-5(8(11)12)3-7(4-6)10(14)15/h2-4H,1H3,(H,11,12)",ZCRNIIJXDRYWDU-UHFFFAOYSA-N,COC(=O)c1cc(C(=O)O)cc([N+](=O)[O-])c1,-2.0737299237,0.0,1,G1,225.156,1.0796,51.39520000000001,16.0,5.0,1.0,7.0,3.0,84.0,1.0,0.0,0.0,1.0,106.74,89.41002836697703,3.347986893150782,434.81705661543685
A-1508,"benzene-1,4-dicarbonyl dichloride",InChI=1S/C8H4Cl2O2/c9-7(11)5-1-2-6(4-3-5)8(10)12/h1-4H,LXEJRKJRKIFVNY-UHFFFAOYSA-N,O=C(Cl)c1ccc(C(=O)Cl)cc1,-4.0287937791,0.0513311709500001,2,G3,203.02399999999997,2.4446000000000003,46.80900000000001,12.0,2.0,0.0,4.0,2.0,62.0,1.0,0.0,0.0,1.0,34.14,79.09086400214105,3.0061498337295465,283.3346746591642
A-1511,benzyl 2-methylprop-2-enoate,"InChI=1S/C11H12O2/c1-9(2)11(12)13-8-10-6-4-3-5-7-10/h3-7H,1,8H2,2H3",AOJOEFVRHOZDFN-UHFFFAOYSA-N,C=C(C)C(=O)OCc1ccccc1,-2.9682045412,0.0,1,G1,176.215,2.3059000000000003,51.05200000000003,13.0,2.0,0.0,2.0,3.0,68.0,1.0,0.0,0.0,1.0,26.3,77.8415779888464,2.442561320452449,301.12613448326965
A-1516,"2,4-dichloro-1-nitrobenzene",InChI=1S/C6H3Cl2NO2/c7-4-1-2-6(9(10)11)5(8)3-4/h1-3H,QUIMTLZDMCNYGY-UHFFFAOYSA-N,O=[N+]([O-])c1ccc(Cl)cc1Cl,-3.0091456414,0.952044704286756,3,G4,192.001,2.9016,43.11640000000001,11.0,2.0,0.0,5.0,1.0,58.0,1.0,0.0,0.0,1.0,43.14,72.6909112957601,3.1960696621259195,300.6337992264623
A-1520,"4-chloro-2,5-dimethoxyaniline","InChI=1S/C8H10ClNO2/c1-11-7-4-6(10)8(12-2)3-5(7)9/h3-4H,10H2,1-2H3",YGUFQYGSBVXPMC-UHFFFAOYSA-N,COc1cc(Cl)c(OC)cc1N,-3.0061212915,0.0,1,G1,187.626,1.9394,48.96840000000002,12.0,3.0,1.0,4.0,2.0,66.0,1.0,0.0,0.0,1.0,44.48,76.03153473119833,3.164874105084725,258.88150377072884
A-1528,(2E)-2-(phenylmethylidene)heptanal,"InChI=1S/C14H18O/c1-2-3-5-10-14(12-15)11-13-8-6-4-7-9-13/h4,6-9,11-12H,2-3,5,10H2,1H3/b14-11-",HMKKIXGYKWDQSV-KAMYIIQDSA-N,CCCCC/C(C=O)=C/c1ccccc1,-3.0466584175,0.0,1,G1,202.297,3.8492000000000033,64.62500000000004,15.0,1.0,0.0,1.0,6.0,80.0,1.0,0.0,0.0,1.0,17.07,91.82285910252936,2.5762090172546523,311.3704021779951