ID,Name,InChI,InChIKey,SMILES,Solubility,SD,Occurrences,Group,MolWt,MolLogP,MolMR,HeavyAtomCount,NumHAcceptors,NumHDonors,NumHeteroatoms,NumRotatableBonds,NumValenceElectrons,NumAromaticRings,NumSaturatedRings,NumAliphaticRings,RingCount,TPSA,LabuteASA,BalabanJ,BertzCT
A-4267,"1-N,1-N-bis(2-hydroxyethyl)benzene-1,4-bis(aminium) sulfate","InChI=1S/C10H16N2O2.H2O4S/c11-9-1-3-10(4-2-9)12(5-7-13)6-8-14;1-5(2,3)4/h1-4,13-14H,5-8,11H2;(H2,1,2,3,4)",KMCFMEHSEWDYKG-UHFFFAOYSA-N,Nc1ccc(N(CCO)CCO)cc1.O=S(=O)(O)O,-0.2184130526,0.0,1,G1,294.329,-0.5929999999999997,71.41640000000004,19.0,6.0,5.0,9.0,5.0,110.0,1.0,0.0,0.0,1.0,144.32,111.2170682405154,5.554285332610438e-07,433.5926109371357
A-4308,2-aminobenzamide,"InChI=1S/C7H8N2O/c8-6-4-2-1-3-5(6)7(9)10/h1-4H,8H2,(H2,9,10)",PXBFMLJZNCDSMP-UHFFFAOYSA-N,NC(=O)c1ccccc1N,-0.9139223167,0.0,1,G1,136.15399999999994,0.3677,39.3723,10.0,2.0,2.0,3.0,1.0,52.0,1.0,0.0,0.0,1.0,69.11,58.63764872796276,3.1529414466808685,257.53794892648057
A-4322,"Nonylphenol, ethoxylated","InChI=1S/C19H32O3/c1-2-3-4-5-6-7-8-9-18-10-12-19(13-11-18)22-17-16-21-15-14-20/h10-13,20H,2-9,14-17H2,1H3",BLXVTZPGEOGTGG-UHFFFAOYSA-N,CCCCCCCCCc1ccc(OCCOCCO)cc1,-0.3045102393,0.0,1,G1,308.462,4.367400000000004,91.53880000000008,22.0,3.0,1.0,3.0,14.0,126.0,1.0,0.0,0.0,1.0,38.69,135.1969748178627,2.0588206075648365,348.20285778166306
A-4334,1-phenoxypropan-2-ol,"InChI=1S/C9H12O2/c1-8(10)7-11-9-5-3-2-4-6-9/h2-6,8,10H,7H2,1H3",IBLKWZIFZMJLFL-UHFFFAOYSA-N,CC(O)COc1ccccc1,-1.0034177306,0.0687911346999999,2,G3,152.19299999999998,1.4462,43.61780000000003,11.0,2.0,1.0,2.0,3.0,60.0,1.0,0.0,0.0,1.0,29.46,66.43400844438968,2.3922911657019332,193.97752353949224
A-4336,2-methylaniline,"InChI=1S/C7H9N/c1-6-4-2-3-5-7(6)8/h2-5H,8H2,1H3",RNVCVTLRINQCPJ-UHFFFAOYSA-N,Cc1ccccc1N,-0.8539252345,0.5985956598755611,4,G4,107.156,1.57722,35.59139999999999,8.0,1.0,1.0,1.0,0.0,42.0,1.0,0.0,0.0,1.0,26.02,49.13623593090629,3.134861511345448,160.49662946459569
A-4350,[(4-sulfamoylphenyl)amino]azanium chloride,"InChI=1S/C6H9N3O2S.ClH/c7-9-5-1-3-6(4-2-5)12(8,10)11;/h1-4,9H,7H2,(H2,8,10,11);1H",IKEURONJLPUALY-UHFFFAOYSA-N,NNc1ccc(S(N)(=O)=O)cc1.[Cl-].[H+],-0.1912743698,0.0,1,G1,223.68499999999997,-3.2638999999999987,46.737300000000005,13.0,4.0,3.0,7.0,2.0,74.0,1.0,0.0,0.0,1.0,98.20999999999998,84.02985023182544,0.0,367.1679360709388
A-4356,2-hydroxy-2-phenylacetic acid,"InChI=1S/C8H8O3/c9-7(8(10)11)6-4-2-1-3-5-6/h1-5,7,9H,(H,10,11)",IWYDHOAUDWTVEP-UHFFFAOYSA-N,O=C(O)C(O)c1ccccc1,-0.0321269405,0.077872061049355,5,G5,152.149,0.8046,39.03760000000002,11.0,2.0,2.0,3.0,2.0,58.0,1.0,0.0,0.0,1.0,57.53,63.91127695272596,2.851177890164404,242.77390023702043
A-4364,phenylphosphonic acid,"InChI=1S/C6H7O3P/c7-10(8,9)6-4-2-1-3-5-6/h1-5H,(H2,7,8,9)",QLZHNIAADXEJJP-UHFFFAOYSA-N,O=P(O)(O)c1ccccc1,-1.0269230581,0.5978489709577908,5,G4,158.093,0.4895999999999999,38.12010000000002,10.0,1.0,2.0,4.0,1.0,54.0,1.0,0.0,0.0,1.0,57.53,58.48281104023684,3.087636787033165,250.95525572342748
A-4377,2-methoxyaniline,"InChI=1S/C7H9NO/c1-9-7-5-3-2-4-6(7)8/h2-5H,8H2,1H3",VMPITZXILSNTON-UHFFFAOYSA-N,COc1ccccc1N,-0.9443240129,0.0228879935499999,2,G3,123.155,1.2774,37.4064,9.0,2.0,1.0,2.0,1.0,48.0,1.0,0.0,0.0,1.0,35.25,54.24978116041317,3.0065240073265844,197.86256853719752
A-4405,2-hydroxy-2-methyl-1-phenylpropan-1-one,"InChI=1S/C10H12O2/c1-10(2,12)9(11)8-6-4-3-5-7-8/h3-7,12H,1-2H3",XMLYCEVDHLAQEL-UHFFFAOYSA-N,CC(C)(O)C(=O)c1ccccc1,-1.0915320913,0.0,1,G1,164.204,1.6402,47.07030000000003,12.0,2.0,1.0,2.0,2.0,64.0,1.0,0.0,0.0,1.0,37.3,71.84692742932317,2.944341945159362,269.6400954855593
A-4436,"3,4-dihydroxybenzonitrile","InChI=1S/C7H5NO2/c8-4-5-1-2-6(9)7(10)3-5/h1-3,9-10H",NUWHYWYSMAPBHK-UHFFFAOYSA-N,N#Cc1ccc(O)c(O)c1,-1.0235160951,0.0210045715,2,G3,135.122,0.96948,34.48660000000001,10.0,3.0,2.0,3.0,0.0,50.0,1.0,0.0,0.0,1.0,64.25,57.777392419754314,3.2001177806223087,288.1478479159225
A-4438,4-aminobenzenesulfonic acid,"InChI=1S/C6H7NO3S/c7-5-1-3-6(4-2-5)11(8,9)10/h1-4H,7H2,(H,8,9,10)",HVBSAKJJOYLTQU-UHFFFAOYSA-N,Nc1ccc(S(=O)(=O)O)cc1,-1.1412730253,0.0361608049086436,3,G5,173.19299999999998,0.5155000000000001,40.669,11.0,3.0,2.0,5.0,1.0,60.0,1.0,0.0,0.0,1.0,80.39,64.3999298265503,3.2015159310664942,340.5950744935719
A-4440,"3,4-diaminobenzenesulfonic acid","InChI=1S/C6H8N2O3S/c7-5-2-1-4(3-6(5)8)12(9,10)11/h1-3H,7-8H2,(H,9,10,11)",FKSRSWQTEJTBMI-UHFFFAOYSA-N,Nc1ccc(S(=O)(=O)O)cc1N,-1.1812163945,0.0,1,G1,188.208,0.0976999999999999,45.0814,12.0,4.0,3.0,6.0,1.0,66.0,1.0,0.0,0.0,1.0,106.41,69.73982052356301,3.327295999016508,399.25426679468546
A-4446,3-methylaniline,"InChI=1S/C7H9N/c1-6-3-2-4-7(8)5-6/h2-5H,8H2,1H3",JJYPMNFTHPTTDI-UHFFFAOYSA-N,Cc1cccc(N)c1,-0.9508352475,0.0886136460312125,4,G5,107.156,1.5772199999999998,35.59139999999999,8.0,1.0,1.0,1.0,0.0,42.0,1.0,0.0,0.0,1.0,26.02,49.13623593090629,3.077660437970554,164.24662946459569
A-4458,"benzene-1,3-diol","InChI=1S/C6H6O2/c7-5-2-1-3-6(8)4-5/h1-4,7-8H",GHMLBKRAJCXXBS-UHFFFAOYSA-N,Oc1cccc(O)c1,1.0034883278,0.1324345936932436,4,G5,110.11199999999998,1.0978,29.771599999999992,8.0,2.0,2.0,2.0,0.0,42.0,1.0,0.0,0.0,1.0,40.46,47.01987062388899,3.077660437970554,166.38833891467198
A-4479,hydroxy(phenyl)acetic acid,"InChI=1S/C8H8O3/c9-7(8(10)11)6-4-2-1-3-5-6/h1-5,7,9H,(H,10,11)/t7-/m1/s1",IWYDHOAUDWTVEP-SSDOTTSWSA-N,O=C(O)[C@H](O)c1ccccc1,-0.1416667622,0.0,1,G1,152.149,0.8046,39.03760000000002,11.0,2.0,2.0,3.0,2.0,58.0,1.0,0.0,0.0,1.0,57.53,63.91127695272596,2.851177890164404,242.77390023702043
A-4522,4-hydroxybenzenesulfonic acid,"InChI=1S/C6H6O4S/c7-5-1-3-6(4-2-5)11(8,9)10/h1-4,7H,(H,8,9,10)",FEPBITJSIHRMRT-UHFFFAOYSA-N,O=S(=O)(O)c1ccc(O)cc1,0.7590091939,0.05995770515,2,G3,174.177,0.6389000000000001,37.921400000000006,11.0,3.0,2.0,5.0,1.0,60.0,1.0,0.0,0.0,1.0,74.6,63.85427288173359,3.2015159310664942,337.3499619957353
A-4557,3-aminobenzenesulfonic acid,"InChI=1S/C6H7NO3S/c7-5-2-1-3-6(4-5)11(8,9)10/h1-4H,7H2,(H,8,9,10)",ZAJAQTYSTDTMCU-UHFFFAOYSA-N,Nc1cccc(S(=O)(=O)O)c1,-1.2051065795,0.1828179350628199,4,G5,173.19299999999998,0.5155000000000001,40.669,11.0,3.0,2.0,5.0,1.0,60.0,1.0,0.0,0.0,1.0,80.39,64.39992982655029,3.2779105845781125,357.8450744935719
A-4567,1-hydroxy-1-phenylacetone,"InChI=1S/C9H10O2/c1-7(10)9(11)8-5-3-2-4-6-8/h2-6,9,11H,1H3",ZBFFNPODXBJBPW-UHFFFAOYSA-N,CC(=O)C(O)c1ccccc1,-1.1766034244,0.0,1,G1,150.177,1.309,42.08280000000003,11.0,2.0,1.0,2.0,2.0,58.0,1.0,0.0,0.0,1.0,37.3,65.48198531492656,2.851177890164404,240.9994627262031
A-4572,"2-amino-4,5-dichlorobenzene-1-sulfonic acid","InChI=1S/C6H5Cl2NO3S/c7-3-1-5(9)6(2-4(3)8)13(10,11)12/h1-2H,9H2,(H,10,11,12)",AKLDPNVZTZIVFA-UHFFFAOYSA-N,Nc1cc(Cl)c(Cl)cc1S(=O)(=O)O,-2.1052106917,0.1415835482944964,3,G5,242.083,1.8223000000000005,50.68900000000001,13.0,3.0,2.0,7.0,1.0,72.0,1.0,0.0,0.0,1.0,80.39,85.00646228031364,3.501552734477128,443.4377406973403
A-4579,2-[(2-nitrophenyl)amino]ethan-1-ol,"InChI=1S/C8H10N2O3/c11-6-5-9-7-3-1-2-4-8(7)10(12)13/h1-4,9,11H,5-6H2",LFOUYKNCQNVIGI-UHFFFAOYSA-N,O=[N+]([O-])c1ccccc1NCCO,-1.9933265855,0.0,1,G1,182.17899999999997,0.999,48.67190000000002,13.0,4.0,2.0,5.0,4.0,70.0,1.0,0.0,0.0,1.0,75.4,75.15835900659403,2.844925640726935,301.19554276161324
A-4588,3-amino-4-chlorobenzamide,"InChI=1S/C7H7ClN2O/c8-5-2-1-4(7(10)11)3-6(5)9/h1-3H,9H2,(H2,10,11)",QHMDKGRWJVOUFU-UHFFFAOYSA-N,NC(=O)c1ccc(Cl)c(N)c1,-1.976703976,0.0,1,G1,170.599,1.0211,44.3823,11.0,2.0,2.0,4.0,1.0,58.0,1.0,0.0,0.0,1.0,69.11,68.94091495484443,3.1515496683060507,298.492089776386
A-4592,benzene,InChI=1S/C6H6/c1-2-4-6-5-3-1/h1-6H,UHOVQNZJYSORNB-UHFFFAOYSA-N,c1ccccc1,-1.6423088751,0.0118689234999999,2,G3,78.11399999999999,1.6866,26.441999999999993,6.0,0.0,0.0,0.0,0.0,30.0,1.0,0.0,0.0,1.0,0.0,37.43140311949697,3.000000000000001,71.96100505779535
A-4600,4-(butoxymethyl)-2-methoxyphenol,"InChI=1S/C12H18O3/c1-3-4-7-15-9-10-5-6-11(13)12(8-10)14-2/h5-6,8,13H,3-4,7,9H2,1-2H3",VLDFMKOUUQYFGF-UHFFFAOYSA-N,CCCCOCc1ccc(O)c(OC)c1,-2.0948968063,0.0124831631999999,2,G3,210.27299999999997,2.717500000000001,59.22280000000005,15.0,3.0,1.0,3.0,6.0,84.0,1.0,0.0,0.0,1.0,38.69,90.64238001708638,2.4713577775816344,296.91874784908947
A-4601,"2,5-dichloroanilinium chloride","InChI=1S/C6H5Cl2N.ClH/c7-4-1-2-5(8)6(9)3-4;/h1-3H,9H2;1H",ZALVJCYWUBQENP-UHFFFAOYSA-N,Nc1cc(Cl)ccc1Cl.[Cl-].[H+],-2.0750002801,0.0,1,G1,198.48,-0.3078999999999996,41.9864,10.0,1.0,1.0,4.0,0.0,56.0,1.0,0.0,0.0,1.0,26.02,77.01571789231797,0.0,229.06742233987632
A-4606,3-(diethylamino)phenol,"InChI=1S/C10H15NO/c1-3-11(4-2)9-6-5-7-10(12)8-9/h5-8,12H,3-4H2,1-2H3",WAVOOWVINKGEHS-UHFFFAOYSA-N,CCN(CC)c1cccc(O)c1,-2.0112787971,0.0153673084999998,2,G3,165.236,2.2384000000000004,51.66780000000004,12.0,2.0,1.0,2.0,3.0,66.0,1.0,0.0,0.0,1.0,23.47,73.44523899948278,2.853599600301738,243.34882468182084
A-4616,fluorobenzene,InChI=1S/C6H5F/c7-6-4-2-1-3-5-6/h1-5H,PYLWMHQQBFSUBP-UHFFFAOYSA-N,Fc1ccccc1,-1.7924097659,0.0,1,G1,96.10399999999998,1.8257,26.399999999999995,7.0,0.0,0.0,1.0,0.0,36.0,1.0,0.0,0.0,1.0,0.0,41.596938522423194,3.0214653097240864,134.10736969541455
A-4624,"2,2-dimethyl-3-phenylpropan-1-ol","InChI=1S/C11H16O/c1-11(2,9-12)8-10-6-4-3-5-7-10/h3-7,12H,8-9H2,1-2H3",VNGAHMPMLRTSLF-UHFFFAOYSA-N,CC(C)(CO)Cc1ccccc1,-2.0423138216,0.0,1,G1,164.248,2.2476000000000003,51.01280000000004,12.0,1.0,1.0,1.0,3.0,66.0,1.0,0.0,0.0,1.0,20.23,74.05034744367602,2.64124625557133,226.01924532784767
A-4630,2-chlorobenzaldehyde,InChI=1S/C7H5ClO/c8-7-4-2-1-3-6(7)5-9/h1-5H,FPYUJUBAXZAQNL-UHFFFAOYSA-N,O=Cc1ccccc1Cl,-1.9805722205,0.0439775851499999,2,G3,140.56899999999996,2.1525,36.839500000000015,9.0,1.0,0.0,2.0,1.0,46.0,1.0,0.0,0.0,1.0,17.07,58.261133560819005,3.1479791300397526,219.91106510209752
A-4631,2-(butan-2-yl)phenol,"InChI=1S/C10H14O/c1-3-8(2)9-6-4-5-7-10(9)11/h4-8,11H,3H2,1-2H3",NGFPWHGISWUQOI-UHFFFAOYSA-N,CCC(C)c1ccccc1O,-2.0123777928999997,0.0,1,G1,150.22099999999998,2.9057000000000017,46.81280000000004,11.0,1.0,1.0,1.0,2.0,60.0,1.0,0.0,0.0,1.0,20.23,67.6854053292794,2.9338523057637267,230.06931585565164
A-4639,5-nitroisophthalic acid,"InChI=1S/C8H5NO6/c10-7(11)4-1-5(8(12)13)3-6(2-4)9(14)15/h1-3H,(H,10,11)(H,12,13)",NBDAHKQJXVLAID-UHFFFAOYSA-N,O=C(O)c1cc(C(=O)O)cc([N+](=O)[O-])c1,-2.178419855,0.0992099275,2,G3,211.12899999999996,0.9912,47.015,15.0,4.0,2.0,7.0,3.0,78.0,1.0,0.0,0.0,1.0,117.74,82.72577477526956,3.387380075453351,373.43801139413137
A-4642,ethyl [(4-methylphenyl)sulfonyl]carbamate,"InChI=1S/C10H13NO4S/c1-3-15-10(12)11-16(13,14)9-6-4-8(2)5-7-9/h4-7H,3H2,1-2H3,(H,11,12)",DFWQXANLGSXMKF-UHFFFAOYSA-N,CCOC(=O)NS(=O)(=O)c1ccc(C)cc1,-2.2430987475,0.0,1,G1,243.284,1.42982,58.52250000000003,16.0,4.0,1.0,6.0,3.0,88.0,1.0,0.0,0.0,1.0,72.47,94.47687698265716,2.8594454295085026,464.0973261036955
A-4652,4-phenylbut-3-en-2-one,"InChI=1S/C10H10O/c1-9(11)7-8-10-5-3-2-4-6-10/h2-8H,1H3/b8-7+",BWHOZHOGCMHOBV-BQYQJAHWSA-N,CC(=O)/C=C/c1ccccc1,-2.050971343,0.0,1,G1,146.189,2.2888,46.157000000000025,11.0,1.0,0.0,1.0,2.0,56.0,1.0,0.0,0.0,1.0,17.07,66.3630906449429,2.7217735540687813,259.461083124702
A-4658,2-[(4-amino-2-nitrophenyl)amino]ethan-1-ol,"InChI=1S/C8H11N3O3/c9-6-1-2-7(10-3-4-12)8(5-6)11(13)14/h1-2,5,10,12H,3-4,9H2",GZGZVOLBULPDFD-UHFFFAOYSA-N,Nc1ccc(NCCO)c([N+](=O)[O-])c1,-2.1910899756,0.0,1,G1,197.194,0.5811999999999999,53.084300000000006,14.0,5.0,3.0,6.0,4.0,76.0,1.0,0.0,0.0,1.0,101.42,80.49824970360673,2.9603825880309396,340.60343105282635
A-4659,4-methyl-4-phenylpentan-2-ol,"InChI=1S/C12H18O/c1-10(13)9-12(2,3)11-7-5-4-6-8-11/h4-8,10,13H,9H2,1-3H3",NCYQVRNLBAYSLE-UHFFFAOYSA-N,CC(O)CC(C)(C)c1ccccc1,-2.1472867242,0.0,1,G1,178.275,2.735100000000001,55.76580000000005,13.0,1.0,1.0,1.0,3.0,72.0,1.0,0.0,0.0,1.0,20.23,80.41528955807264,2.810733935725913,249.08680360822464
A-4662,"2,3-dichloroaniline","InChI=1S/C6H5Cl2N/c7-4-2-1-3-5(9)6(4)8/h1-3H,9H2",BRPSAOUFIJSKOT-UHFFFAOYSA-N,Nc1cccc(Cl)c1Cl,-2.1303847013,0.0,1,G1,162.019,2.575600000000001,40.8744,9.0,1.0,1.0,3.0,0.0,48.0,1.0,0.0,0.0,1.0,26.02,63.377826270273026,3.2478347337367026,202.0478870500104
A-4663,5-chloro-2-methylaniline,"InChI=1S/C7H8ClN/c1-5-2-3-6(8)4-7(5)9/h2-4H,9H2,1H3",WRZOMWDJOLIVQP-UHFFFAOYSA-N,Cc1ccc(Cl)cc1N,-2.0718850743,0.0,1,G1,141.601,2.23062,40.60140000000001,9.0,1.0,1.0,2.0,0.0,48.0,1.0,0.0,0.0,1.0,26.02,59.43950215778796,3.171678030440915,220.15617759993404
A-4667,ethyl 2-phenylacetate,"InChI=1S/C10H12O2/c1-2-12-10(11)8-9-6-4-3-5-7-9/h3-7H,2,8H2,1H3",DULCUDSUACXJJC-UHFFFAOYSA-N,CCOC(=O)Cc1ccccc1,-2.1362024863,0.0,1,G1,164.204,1.7922,46.77900000000003,12.0,2.0,0.0,2.0,3.0,64.0,1.0,0.0,0.0,1.0,26.3,72.16623890663404,2.4716659606850775,241.27530899395387
A-4679,2-methoxy-4-propylphenol,"InChI=1S/C10H14O2/c1-3-4-8-5-6-9(11)10(7-8)12-2/h5-7,11H,3-4H2,1-2H3",PXIKRTCSSLJURC-UHFFFAOYSA-N,CCCc1ccc(O)c(OC)c1,-2.1792905928,0.0,1,G1,166.21999999999997,2.3533,48.65380000000003,12.0,2.0,1.0,2.0,3.0,66.0,1.0,0.0,0.0,1.0,29.46,72.79895055878629,2.8886510104905314,256.01553398962693
A-4689,3-(4-methoxyphenyl)-2-methylpropanal,"InChI=1S/C11H14O2/c1-9(8-12)7-10-3-5-11(13-2)6-4-10/h3-6,8-9H,7H2,1-2H3",VLFBSPUPYFTTNF-UHFFFAOYSA-N,COc1ccc(CC(C)C=O)cc1,-2.24666187,0.0,1,G1,178.231,2.0727,51.92600000000003,13.0,2.0,0.0,2.0,4.0,70.0,1.0,0.0,0.0,1.0,26.3,78.53118102103066,2.6341061805197867,263.92369729722583
A-4695,2-amino-5-chloro-4-methylbenzene-1-sulfonic acid,"InChI=1S/C7H8ClNO3S/c1-4-2-6(9)7(3-5(4)8)13(10,11)12/h2-3H,9H2,1H3,(H,10,11,12)",VYZCFAPUHSSYCC-UHFFFAOYSA-N,Cc1cc(N)c(S(=O)(=O)O)cc1Cl,-2.3456971252,0.0,1,G1,221.665,1.4773200000000002,50.41600000000001,13.0,3.0,2.0,6.0,1.0,72.0,1.0,0.0,0.0,1.0,80.39,81.06813816782858,3.501552734477128,441.29603124726407
A-4703,4-chloro-2-(trifluoromethyl)aniline,"InChI=1S/C7H5ClF3N/c8-4-1-2-6(12)5(3-4)7(9,10)11/h1-3H,12H2",CVINWVPRKDIGLL-UHFFFAOYSA-N,Nc1ccc(Cl)cc1C(F)(F)F,-2.2934813757,0.0,1,G1,195.57099999999997,2.9410000000000007,40.8664,12.0,1.0,1.0,5.0,0.0,66.0,1.0,0.0,0.0,1.0,26.02,71.93610836656666,3.231425013090014,295.1932294735393
A-4707,2-tert-butylphenol,"InChI=1S/C10H14O/c1-10(2,3)8-6-4-5-7-9(8)11/h4-7,11H,1-3H3",WJQOZHYUIDYNHM-UHFFFAOYSA-N,CC(C)(C)c1ccccc1O,-2.1899589144,0.0708205427999999,2,G3,150.22099999999998,2.6897000000000015,46.80680000000004,11.0,1.0,1.0,1.0,0.0,60.0,1.0,0.0,0.0,1.0,20.23,67.6854053292794,3.1411091905317954,245.29484428381988
A-4720,"2,3-dichlorobenzoic acid","InChI=1S/C7H4Cl2O2/c8-5-3-1-2-4(6(5)9)7(10)11/h1-3H,(H,10,11)",QAOJBHRZQQDFHA-UHFFFAOYSA-N,O=C(O)c1cccc(Cl)c1Cl,-2.3316729189,0.0,1,G1,191.013,2.691600000000001,43.42130000000001,11.0,1.0,1.0,4.0,1.0,58.0,1.0,0.0,0.0,1.0,37.3,73.35863353989669,3.2735808215375433,296.4920897763861
A-4722,2-amino-4-chloro-5-methylbenzenesulfonic acid,"InChI=1S/C7H8ClNO3S/c1-4-2-7(13(10,11)12)6(9)3-5(4)8/h2-3H,9H2,1H3,(H,10,11,12)",VRLPHBSFRWMMPW-UHFFFAOYSA-N,Cc1cc(S(=O)(=O)O)c(N)cc1Cl,-2.4061778726,0.0,1,G1,221.665,1.4773200000000002,50.41600000000001,13.0,3.0,2.0,6.0,1.0,72.0,1.0,0.0,0.0,1.0,80.39,81.06813816782858,3.501552734477128,441.29603124726407
A-4724,N-(2-chlorophenyl)-3-oxobutanamide,"InChI=1S/C10H10ClNO2/c1-7(13)6-10(14)12-9-5-3-2-4-8(9)11/h2-5H,6H2,1H3,(H,12,14)",BFVHBHKMLIBQNN-UHFFFAOYSA-N,CC(=O)CC(=O)Nc1ccccc1Cl,-2.4065360765,0.0151559571000001,2,G3,211.648,2.2576,55.37970000000002,14.0,2.0,1.0,4.0,3.0,74.0,1.0,0.0,0.0,1.0,46.17,87.06734418766062,2.649628786208871,362.894560389167
A-4725,4-bromophenyl acetate,"InChI=1S/C8H7BrO2/c1-6(10)11-8-4-2-7(9)3-5-8/h2-5H,1H3",XEXHCQJRVMVJMY-UHFFFAOYSA-N,CC(=O)Oc1ccc(Br)cc1,-2.4166041571,0.0,1,G1,215.046,2.3744000000000005,45.451000000000015,11.0,2.0,0.0,3.0,1.0,58.0,1.0,0.0,0.0,1.0,26.3,73.3039022834822,2.7362980721056545,253.29949758389105
A-4737,2-nitro-4-(trifluoromethyl)benzonitrile,"InChI=1S/C8H3F3N2O2/c9-8(10,11)6-2-1-5(4-12)7(3-6)13(14)15/h1-3H",BQCWLXXZTCLGSZ-UHFFFAOYSA-N,N#Cc1ccc(C(F)(F)F)cc1[N+](=O)[O-],-2.4707735629,0.0,1,G1,216.1179999999999,2.4852800000000004,42.8134,15.0,3.0,0.0,7.0,1.0,78.0,1.0,0.0,0.0,1.0,66.93,81.7034489610374,3.3666606547514895,448.18049579347047
A-4740,"6,8,9-trinitro-2,4-dioxa-3-plumbabicyclo[3.3.1]nona-1(9),5,7-triene","InChI=1S/C6H3N3O8.Pb/c10-5-2(7(12)13)1-3(8(14)15)6(11)4(5)9(16)17;/h1,10-11H;/q;+2/p-2",WETZJIOEDGMBMA-UHFFFAOYSA-L,O=[N+]([O-])c1cc([N+](=O)[O-])c([O-])c([N+](=O)[O-])c1[O-].[Pb+2],-2.8083913687999997,0.0730640178500001,2,G3,450.2870000000002,-0.8224000000000005,51.05119999999999,18.0,8.0,0.0,12.0,3.0,92.0,1.0,0.0,0.0,1.0,175.54,117.26134936494996,2.889998848392143e-06,505.8741024531471
A-4751,2-methyl-1-phenylpropan-1-one,"InChI=1S/C10H12O/c1-8(2)10(11)9-6-4-3-5-7-9/h3-8H,1-2H3",BSMGLVDZZMBWQB-UHFFFAOYSA-N,CC(C)C(=O)c1ccccc1,-2.35661526,0.0,1,G1,148.20499999999998,2.5253000000000005,45.61050000000003,11.0,1.0,0.0,1.0,2.0,58.0,1.0,0.0,0.0,1.0,17.07,67.05269367712715,2.85953097747342,236.30950679031025
A-4754,3-amino-2-hydroxy-5-nitrobenzoic acid,"InChI=1S/C7H6N2O5/c8-5-2-3(9(13)14)1-4(6(5)10)7(11)12/h1-2,10H,8H2,(H,11,12)",JFTUSFFYSRNFBA-UHFFFAOYSA-N,Nc1cc([N+](=O)[O-])cc(C(=O)O)c1O,-2.4907790333,0.0,1,G1,198.134,0.5808,46.13289999999999,14.0,5.0,3.0,7.0,2.0,74.0,1.0,0.0,0.0,1.0,126.69,77.53920125784187,3.427504477934316,414.78633577032497
A-4757,"4-amino-5-methoxy-N,2-dimethylbenzenesulfonamide","InChI=1S/C9H14N2O3S/c1-6-4-7(10)8(14-3)5-9(6)15(12,13)11-2/h4-5,11H,10H2,1-3H3",GWSQAGVGSHXRJK-UHFFFAOYSA-N,CNS(=O)(=O)c1cc(OC)c(N)cc1C,-2.5769433589,0.0,1,G1,230.28899999999996,0.49392,58.38890000000002,15.0,4.0,2.0,6.0,3.0,84.0,1.0,0.0,0.0,1.0,81.42,89.2903034652295,3.440724730288767,468.4909553293869
A-4758,4-tert-butylphenol,"InChI=1S/C10H14O/c1-10(2,3)8-4-6-9(11)7-5-8/h4-7,11H,1-3H3",QHPQWRBYOIRBIT-UHFFFAOYSA-N,CC(C)(C)c1ccc(O)cc1,-2.3914008137,0.0109495931499998,2,G3,150.22099999999998,2.689700000000001,46.80680000000004,11.0,1.0,1.0,1.0,0.0,60.0,1.0,0.0,0.0,1.0,20.23,67.6854053292794,2.993754788259927,228.04484428381983
A-4769,"3,4-dichloroaniline","InChI=1S/C6H5Cl2N/c7-5-2-1-4(9)3-6(5)8/h1-3H,9H2",SDYWXFYBZPNOFX-UHFFFAOYSA-N,Nc1ccc(Cl)c(Cl)c1,-2.4461379538,0.4036605147489206,4,G5,162.019,2.575600000000001,40.87440000000001,9.0,1.0,1.0,3.0,0.0,48.0,1.0,0.0,0.0,1.0,26.02,63.377826270273026,3.1716780304409156,222.29788705001033
A-4775,1-methoxy-4-methylbenzene,"InChI=1S/C8H10O/c1-7-3-5-8(9-2)6-4-7/h3-6H,1-2H3",CHLICZRVGGXEOD-UHFFFAOYSA-N,COc1ccc(C)cc1,-2.3395421012999997,0.0,1,G1,122.16699999999996,2.0036199999999997,37.73100000000001,9.0,1.0,0.0,1.0,1.0,48.0,1.0,0.0,0.0,1.0,9.23,55.274832577797056,2.881555877646136,176.26405299160075
A-4779,2-(2-methylbutan-2-yl)phenol,"InChI=1S/C11H16O/c1-4-11(2,3)9-7-5-6-8-10(9)12/h5-8,12H,4H2,1-3H3",BGRKGHSKCFAPCL-UHFFFAOYSA-N,CCC(C)(C)c1ccccc1O,-2.4912242204,0.0,1,G1,164.24799999999996,3.079800000000002,51.42380000000004,12.0,1.0,1.0,1.0,2.0,66.0,1.0,0.0,0.0,1.0,20.23,74.05034744367602,3.101788399219177,263.46155198252444
A-4795,(2E)-2-methyl-3-phenylprop-2-enal,"InChI=1S/C10H10O/c1-9(8-11)7-10-5-3-2-4-6-10/h2-8H,1H3/b9-7-",VLUMOWNVWOXZAU-CLFYSBASSA-N,C/C(C=O)=C/c1ccccc1,-2.4747186153,0.0,1,G1,146.189,2.2888,46.157000000000025,11.0,1.0,0.0,1.0,2.0,56.0,1.0,0.0,0.0,1.0,17.07,66.3630906449429,2.8717118913324144,259.461083124702
A-4807,N-butylbenzenesulfonamide,"InChI=1S/C10H15NO2S/c1-2-3-9-11-14(12,13)10-7-5-4-6-8-10/h4-8,11H,2-3,9H2,1H3",IPRJXAGUEGOFGG-UHFFFAOYSA-N,CCCCNS(=O)(=O)c1ccccc1,-2.6757824138,0.5445100266,2,G2,213.302,1.7650000000000003,56.538500000000035,14.0,2.0,1.0,4.0,5.0,78.0,1.0,0.0,0.0,1.0,46.17,85.20180965310654,2.671669154266394,358.96820513071896
A-4815,1-chloro-2-nitrobenzene,InChI=1S/C6H4ClNO2/c7-5-3-1-2-4-6(5)8(9)10/h1-4H,BFCFYVKQTRLZHA-UHFFFAOYSA-N,O=[N+]([O-])c1ccccc1Cl,-2.5639664909,0.1513862448011161,6,G5,157.55599999999998,2.2482000000000006,38.106400000000015,10.0,2.0,0.0,4.0,1.0,52.0,1.0,0.0,0.0,1.0,43.14,62.387645068878435,3.1529414466808685,261.67965837655686
A-4817,bromobenzene,InChI=1S/C6H5Br/c7-6-4-2-1-3-5-6/h1-5H,QARVLSVVCXYDNA-UHFFFAOYSA-N,Brc1ccccc1,-2.568561457,0.0314384916929601,4,G5,157.01,2.4491000000000005,34.142,7.0,0.0,0.0,1.0,0.0,36.0,1.0,0.0,0.0,1.0,0.0,51.298950725138326,3.0214653097240864,134.10736969541455