ID,Name,InChI,InChIKey,SMILES,Solubility,SD,Occurrences,Group,MolWt,MolLogP,MolMR,HeavyAtomCount,NumHAcceptors,NumHDonors,NumHeteroatoms,NumRotatableBonds,NumValenceElectrons,NumAromaticRings,NumSaturatedRings,NumAliphaticRings,RingCount,TPSA,LabuteASA,BalabanJ,BertzCT
B-2453,"benzoic acid, 4-hydroxy-3-iodo-, butyl ester","InChI=1S/C11H13IO3/c1-2-3-6-15-11(14)8-4-5-10(13)9(12)7-8/h4-5,7,13H,2-3,6H2,1H3",LDGUZTFKHIQDJC-UHFFFAOYSA-N,CCCCOC(=O)c1ccc(O)c(I)c1,-3.9033,0.0,1,G1,320.126,2.9537000000000013,66.01430000000003,15.0,3.0,1.0,4.0,4.0,82.0,1.0,0.0,0.0,1.0,46.53,102.58725289427028,2.6180849583030543,349.6863125286536
B-2454,"propanoic acid, 2-(2,4-dichlorophenoxy)-, (r)-","InChI=1S/C9H8Cl2O3/c1-5(9(12)13)14-8-3-2-6(10)4-7(8)11/h2-5H,1H3,(H,12,13)/t5-/m1/s1",MZHCENGPTKEIGP-RXMQYKEDSA-N,C[C@@H](Oc1ccc(Cl)cc1Cl)C(=O)O,-2.6003,0.0,1,G1,235.06599999999997,2.845300000000001,54.18780000000002,14.0,2.0,1.0,5.0,3.0,76.0,1.0,0.0,0.0,1.0,46.53,91.2020629981968,2.817664884623791,351.9103452953617
B-2470,pentachlorobenzyl alcohol,"InChI=1S/C7H3Cl5O/c8-3-2(1-13)4(9)6(11)7(12)5(3)10/h13H,1H2",RVCKCEDKBVEEHL-UHFFFAOYSA-N,OCc1c(Cl)c(Cl)c(Cl)c(Cl)c1Cl,-5.1467,0.0,1,G1,280.365,4.445900000000001,57.414800000000014,13.0,1.0,1.0,6.0,1.0,72.0,1.0,0.0,0.0,1.0,20.23,100.10691012049791,3.563757676047911,320.2215178022033
B-2473,carbetamide,"InChI=1S/C12H16N2O3/c1-3-13-11(15)9(2)17-12(16)14-10-7-5-4-6-8-10/h4-9H,3H2,1-2H3,(H,13,15)(H,14,16)/t9-/m0/s1",AMRQXHFXNZFDCH-VIFPVBQESA-N,CCNC(=O)[C@H](C)OC(=O)Nc1ccccc1,-1.8293,0.0,1,G1,236.271,1.7596999999999998,64.69140000000003,17.0,3.0,2.0,5.0,4.0,92.0,1.0,0.0,0.0,1.0,67.42999999999999,100.15736960268714,2.419926733388694,378.5969479612245
B-2476,"phenol, 2-iodo-4-methyl-","InChI=1S/C7H7IO/c1-5-2-3-7(9)6(8)4-5/h2-4,9H,1H3",JITSLEIKSRKKCZ-UHFFFAOYSA-N,Cc1ccc(O)c(I)c1,-2.4662,0.0,1,G1,234.036,2.3052200000000003,45.560800000000015,9.0,1.0,1.0,2.0,0.0,48.0,1.0,0.0,0.0,1.0,20.23,67.85241710713322,3.1716780304409156,220.15617759993404
B-2477,"2-propenoic acid, 3-[2-(acetyloxy)phenyl]-, (e)-","InChI=1S/C11H10O4/c1-8(12)15-10-5-3-2-4-9(10)6-7-11(13)14/h2-7H,1H3,(H,13,14)/b7-6+",UXOWQQCLBQBRMQ-VOTSOKGWSA-N,CC(=O)Oc1ccccc1/C=C/C(=O)O,-3.1559,0.0,1,G1,206.19699999999995,1.7097,54.420800000000014,15.0,3.0,1.0,4.0,3.0,78.0,1.0,0.0,0.0,1.0,63.6,86.79733384108619,2.9536555307466617,406.803877923803
B-2479,"benzoic acid, 3-chloro-4-hydroxy-, ethyl ester","InChI=1S/C9H9ClO3/c1-2-13-9(12)6-3-4-8(11)7(10)5-6/h3-5,11H,2H2,1H3",QBOWIPYEPOVPGR-UHFFFAOYSA-N,CCOC(=O)c1ccc(O)c(Cl)c1,-3.2232,0.0,1,G1,200.621,2.2222999999999997,49.073300000000025,13.0,3.0,1.0,4.0,2.0,70.0,1.0,0.0,0.0,1.0,46.53,80.8987967713151,2.9029492111309567,322.63589476880867
B-2482,mecoprop-p,"InChI=1S/C10H11ClO3/c1-6-5-8(11)3-4-9(6)14-7(2)10(12)13/h3-5,7H,1-2H3,(H,12,13)/t7-/m1/s1",WNTGYJSOUMFZEP-SSDOTTSWSA-N,Cc1cc(Cl)ccc1O[C@H](C)C(=O)O,-2.3972,0.0,1,G1,214.64799999999997,2.500319999999999,53.91480000000002,14.0,2.0,1.0,4.0,3.0,76.0,1.0,0.0,0.0,1.0,46.53,87.26373888571173,2.817664884623791,349.2203893594689
B-2489,"3,4,5-trichloroveratrole","InChI=1S/C8H7Cl3O2/c1-12-5-3-4(9)6(10)7(11)8(5)13-2/h3H,1-2H3",VKNITLPENCJQOP-UHFFFAOYSA-N,COc1cc(Cl)c(Cl)c(Cl)c1OC,-4.3701,0.0,1,G1,241.501,3.6640000000000015,54.57600000000002,13.0,2.0,0.0,5.0,2.0,72.0,1.0,0.0,0.0,1.0,18.46,91.29817648794896,3.387372269116415,325.65544477746255
B-2490,4-chloroguaiacol,"InChI=1S/C7H7ClO2/c1-10-7-4-5(8)2-3-6(7)9/h2-4,9H,1H3",FVZQMMMRFNURSH-UHFFFAOYSA-N,COc1cc(Cl)ccc1O,-1.5013,0.0,1,G1,158.584,2.0542,39.66880000000002,10.0,2.0,1.0,3.0,1.0,54.0,1.0,0.0,0.0,1.0,29.46,64.00739044247814,3.090683646458197,235.04775799182192
B-2493,"succinic acid, 2-ethyl-3-phenyl-","InChI=1S/C12H14O4/c1-2-9(11(13)14)10(12(15)16)8-6-4-3-5-7-8/h3-7,9-10H,2H2,1H3,(H,13,14)(H,15,16)",AAQWYJPJRWOQEV-UHFFFAOYSA-N,CCC(C(=O)O)C(C(=O)O)c1ccccc1,-2.3256,0.0,1,G1,222.24,1.9656,58.23560000000003,16.0,2.0,2.0,4.0,5.0,86.0,1.0,0.0,0.0,1.0,74.6,93.5325675103562,3.0886506543233865,371.8649671621322
B-2497,"1,4-benzenedisulfonamide","InChI=1S/C6H8N2O4S2/c7-13(9,10)5-1-2-6(4-3-5)14(8,11)12/h1-4H,(H2,7,9,10)(H2,8,11,12)",WOUBWJAJSXAOIV-UHFFFAOYSA-N,NS(=O)(=O)c1ccc(S(N)(=O)=O)cc1,-2.5283,0.0,1,G1,236.27399999999997,-1.0185999999999995,49.18840000000001,14.0,4.0,2.0,8.0,2.0,78.0,1.0,0.0,0.0,1.0,120.32,81.63273629835254,3.2768036092509747,478.6991658552389
B-2505,"benzeneacetic acid, .alpha.-hydroxy-, (s)-","InChI=1S/C8H8O3/c9-7(8(10)11)6-4-2-1-3-5-6/h1-5,7,9H,(H,10,11)/t7-/m0/s1",IWYDHOAUDWTVEP-ZETCQYMHSA-N,O=C(O)[C@@H](O)c1ccccc1,0.1592,0.0,1,G1,152.149,0.8046,39.03760000000002,11.0,2.0,2.0,3.0,2.0,58.0,1.0,0.0,0.0,1.0,57.53,63.91127695272596,2.851177890164404,242.77390023702043
B-2508,"3,5-dinitro-l-tyrosine","InChI=1S/C9H9N3O7/c10-5(9(14)15)1-4-2-6(11(16)17)8(13)7(3-4)12(18)19/h2-3,5,13H,1,10H2,(H,14,15)/t5-/m0/s1",SAZOSDSFLRXREA-YFKPBYRVSA-N,N[C@@H](Cc1cc([N+](=O)[O-])c(O)c([N+](=O)[O-])c1)C(=O)O,-1.5125,0.0,1,G1,271.185,0.1629999999999998,60.730799999999995,19.0,7.0,3.0,10.0,5.0,102.0,1.0,0.0,0.0,1.0,169.82999999999998,104.9220612091349,3.3042723212074687,521.739372375226
B-2509,"acetone, 4-(p-nitrophenyl)semicarbazone","InChI=1S/C10H12N4O3/c1-7(2)12-13-10(15)11-8-3-5-9(6-4-8)14(16)17/h3-6H,1-2H3,(H2,11,13,15)",XBOWKFFJMDFKOW-UHFFFAOYSA-N,CC(C)=NNC(=O)Nc1ccc([N+](=O)[O-])cc1,-3.5952,0.0,1,G1,236.231,2.1121,64.03380000000001,17.0,4.0,2.0,7.0,3.0,90.0,1.0,0.0,0.0,1.0,96.63,97.67085227293816,2.6020074863604292,449.1237439851267
B-2510,"1,3,5-benzenetricarboxylic acid, 2-methoxy-","InChI=1S/C10H8O7/c1-17-7-5(9(13)14)2-4(8(11)12)3-6(7)10(15)16/h2-3H,1H3,(H,11,12)(H,13,14)(H,15,16)",VPHWGVPHJXKPOK-UHFFFAOYSA-N,COc1c(C(=O)O)cc(C(=O)O)cc1C(=O)O,-1.5354,0.0,1,G1,240.16699999999997,0.7898000000000001,53.8719,17.0,4.0,3.0,7.0,4.0,90.0,1.0,0.0,0.0,1.0,121.13000000000002,94.87198436330962,3.625430618211917,468.37103174272534
B-2517,"1,2-benzenedicarboxylic acid, mono(2-hydroxyethy","InChI=1S/C10H10O5/c11-5-6-15-10(14)8-4-2-1-3-7(8)9(12)13/h1-4,11H,5-6H2,(H,12,13)",NTINFTOOVNKGIU-UHFFFAOYSA-N,O=C(O)c1ccccc1C(=O)OCCO,-1.4825,0.0,1,G1,210.18499999999997,0.5339,50.76960000000002,15.0,4.0,2.0,5.0,4.0,80.0,1.0,0.0,0.0,1.0,83.83000000000001,85.91622851106985,2.9229450292375327,371.83042670586934
B-2520,"phenol, 4-amino-2,6-dinitro-","InChI=1S/C6H5N3O5/c7-3-1-4(8(11)12)6(10)5(2-3)9(13)14/h1-2,10H,7H2",TTXPIURLJOPGTE-UHFFFAOYSA-N,Nc1cc([N+](=O)[O-])c(O)c([N+](=O)[O-])c1,-2.3853,0.0,1,G1,199.122,0.7907999999999997,45.828,14.0,6.0,2.0,8.0,2.0,74.0,1.0,0.0,0.0,1.0,132.53,76.87147901370528,3.472584005406869,380.92315771823786
B-2524,"benzaldehyde, 4-hydroxy-3-methoxy-2-methyl-","InChI=1S/C9H10O3/c1-6-7(5-10)3-4-8(11)9(6)12-2/h3-5,11H,1-2H3",NHXMRQITQSBVLJ-UHFFFAOYSA-N,COc1c(O)ccc(C=O)c1C,-1.3755,0.0,1,G1,166.176,1.5217199999999995,44.783300000000025,12.0,3.0,1.0,3.0,2.0,64.0,1.0,0.0,0.0,1.0,46.53,70.59553054443344,3.330537498737434,304.8871119487945
B-2525,"benzoic acid, 4-amino-, 1-methylethyl ester","InChI=1S/C10H13NO2/c1-7(2)13-10(12)8-3-5-9(11)6-4-8/h3-7H,11H2,1-2H3",JWCPZKNBPMSYND-UHFFFAOYSA-N,CC(C)OC(=O)c1ccc(N)cc1,-2.6099,0.0,1,G1,179.219,1.834,51.405900000000024,13.0,3.0,1.0,3.0,2.0,70.0,1.0,0.0,0.0,1.0,52.32,77.50612960364676,2.7210567131320755,290.2979848465724
B-2529,"benzenemethanol, 4-iodo-","InChI=1S/C7H7IO/c8-7-3-1-6(5-9)2-4-7/h1-4,9H,5H2",CNQRHSZYVFYOIE-UHFFFAOYSA-N,OCc1ccc(I)cc1,-2.7460000000000004,0.0,1,G1,234.036,1.7835,45.081800000000015,9.0,1.0,1.0,2.0,1.0,48.0,1.0,0.0,0.0,1.0,20.23,67.85241710713322,2.881555877646136,180.61256853719752
B-2539,albuterol,"InChI=1S/C13H21NO3/c1-13(2,3)14-7-12(17)9-4-5-11(16)10(6-9)8-15/h4-6,12,14-17H,7-8H2,1-3H3",NDAUXUAQIAJITI-UHFFFAOYSA-N,CC(C)(C)NCC(O)c1ccc(O)c(CO)c1,-1.2298,0.3899,2,G3,239.315,1.3059999999999998,66.74510000000004,17.0,4.0,4.0,4.0,4.0,96.0,1.0,0.0,0.0,1.0,72.72,101.9185613604693,2.7202058661391737,371.41759115181975
B-2548,"butanoic acid, 3-methyl-, 4-nitrophenyl ester","InChI=1S/C11H13NO4/c1-8(2)7-11(13)16-10-5-3-9(4-6-10)12(14)15/h3-6,8H,7H2,1-2H3",SZQWZNOMEWDZLR-UHFFFAOYSA-N,CC(C)CC(=O)Oc1ccc([N+](=O)[O-])cc1,-4.3945,0.0,1,G1,223.228,2.5463000000000005,58.18640000000003,16.0,4.0,0.0,5.0,4.0,86.0,1.0,0.0,0.0,1.0,69.44,93.18415674353044,2.6161392427765295,383.4759654533224
B-2549,"benzenemethanol, 2-bromo-","InChI=1S/C7H7BrO/c8-7-4-2-1-3-6(7)5-9/h1-4,9H,5H2",IOWGHQGLUMEZKG-UHFFFAOYSA-N,OCc1ccccc1Br,-2.158,0.0,1,G1,187.03599999999997,1.9414,40.06480000000001,9.0,1.0,1.0,2.0,1.0,48.0,1.0,0.0,0.0,1.0,20.23,62.458126591730945,3.0065240073265844,197.86256853719752
B-2556,5-chlorovanillin,"InChI=1S/C8H7ClO3/c1-12-7-3-5(4-10)2-6(9)8(7)11/h2-4,11H,1H3",ONIVKFDMLVBDRK-UHFFFAOYSA-N,COc1cc(C=O)cc(Cl)c1O,-2.8747,0.0,1,G1,186.59399999999997,1.8667,45.056300000000014,12.0,3.0,1.0,4.0,2.0,64.0,1.0,0.0,0.0,1.0,46.53,74.5338546569185,3.278676986181533,309.41643696177533
B-2564,"1,2-butanediol, 2-methyl-1-phenyl-","InChI=1S/C11H16O2/c1-3-11(2,13)10(12)9-7-5-4-6-8-9/h4-8,10,12-13H,3H2,1-2H3",VUHBPPSSQKUCSE-UHFFFAOYSA-N,CCC(C)(O)C(O)c1ccccc1,-1.7244,0.0,1,G1,180.247,1.881,52.31660000000005,13.0,2.0,2.0,2.0,3.0,72.0,1.0,0.0,0.0,1.0,40.46,78.84458119587204,2.852943579601413,254.05260581186823
B-2573,"benzoic acid, 4-amino-, dodecyl ester","InChI=1S/C19H31NO2/c1-2-3-4-5-6-7-8-9-10-11-16-22-19(21)17-12-14-18(20)15-13-17/h12-15H,2-11,16,20H2,1H3",IXYYMEVNJZMVBN-UHFFFAOYSA-N,CCCCCCCCCCCCOC(=O)c1ccc(N)cc1,-7.8,0.0,1,G1,305.462,5.346500000000004,92.98090000000006,22.0,3.0,1.0,3.0,12.0,124.0,1.0,0.0,0.0,1.0,52.32,134.79060863321627,1.9268319902698223,400.4011396492779
B-2575,"a-(2,2,2-trichloroethyl)styrene","InChI=1S/C10H9Cl3/c1-8(7-10(11,12)13)9-5-3-2-4-6-9/h2-6H,1,7H2",JNHUFDXYWPRKLK-UHFFFAOYSA-N,C=C(CC(Cl)(Cl)Cl)c1ccccc1,-4.2822,0.0,1,G1,235.541,4.460100000000002,60.383000000000024,13.0,0.0,0.0,3.0,2.0,70.0,1.0,0.0,0.0,1.0,0.0,93.1113672255442,2.7064848330743776,284.7882098422454
B-2584,"acetamide, n-(4-propoxyphenyl)-","InChI=1S/C11H15NO2/c1-3-8-14-11-6-4-10(5-7-11)12-9(2)13/h4-7H,3,8H2,1-2H3,(H,12,13)",WDRXFPOGKSGHFM-UHFFFAOYSA-N,CCCOc1ccc(NC(C)=O)cc1,-3.0557,0.0,1,G1,193.246,2.4338000000000006,56.53170000000003,14.0,2.0,1.0,3.0,4.0,76.0,1.0,0.0,0.0,1.0,38.33,84.0810432046387,2.543944627199978,292.660770563408
B-2586,"urea, 1-methyl-1-o-tolyl-","InChI=1S/C9H12N2O/c1-7-5-3-4-6-8(7)11(2)9(10)12/h3-6H,1-2H3,(H2,10,12)",IWYDNHDPJXFEOV-UHFFFAOYSA-N,Cc1ccccc1N(C)C(N)=O,-0.4032,0.0,1,G1,164.20799999999997,1.5099200000000002,49.16540000000002,12.0,1.0,1.0,3.0,1.0,64.0,1.0,0.0,0.0,1.0,46.33,71.78747592994662,3.0227910918592995,296.3349389236156
B-2588,"urea, 1-ethyl-1-o-tolyl-","InChI=1S/C10H14N2O/c1-3-12(10(11)13)9-7-5-4-6-8(9)2/h4-7H,3H2,1-2H3,(H2,11,13)",DVVVPMHPSRJZQX-UHFFFAOYSA-N,CCN(C(N)=O)c1ccccc1C,-0.2096,0.0,1,G1,178.235,1.9000200000000005,53.782400000000024,13.0,1.0,1.0,3.0,2.0,70.0,1.0,0.0,0.0,1.0,46.33,78.15241804434324,3.0444220824956174,309.5479848465724
B-2590,"1,2-pentanediol, 1-phenyl-2-propyl-","InChI=1S/C14H22O2/c1-3-10-14(16,11-4-2)13(15)12-8-6-5-7-9-12/h5-9,13,15-16H,3-4,10-11H2,1-2H3",FGVUALJOVZKHOH-UHFFFAOYSA-N,CCCC(O)(CCC)C(O)c1ccccc1,-2.648,0.0,1,G1,222.328,3.0513000000000012,66.16760000000005,16.0,2.0,2.0,2.0,6.0,90.0,1.0,0.0,0.0,1.0,40.46,97.93940753906188,2.8611993264104183,288.8634680529688
B-2591,"1,2-hexanediol, 2-butyl-1phenyl-","InChI=1S/C16H26O2/c1-3-5-12-16(18,13-6-4-2)15(17)14-10-8-7-9-11-14/h7-11,15,17-18H,3-6,12-13H2,1-2H3",MGJOTHOXCFYBTC-UHFFFAOYSA-N,CCCCC(O)(CCCC)C(O)c1ccccc1,-3.2225,0.0,1,G1,250.382,3.831500000000003,75.40160000000006,18.0,2.0,2.0,2.0,8.0,102.0,1.0,0.0,0.0,1.0,40.46,110.6692917678551,2.8036545237207315,313.1286621786354
B-2594,chloraniformethane,"InChI=1S/C9H7Cl5N2O/c10-6-2-1-5(3-7(6)11)16-8(15-4-17)9(12,13)14/h1-4,8,16H,(H,15,17)",REEFSLKDEDEWAO-UHFFFAOYSA-N,O=CNC(Nc1ccc(Cl)c(Cl)c1)C(Cl)(Cl)Cl,-3.3228,0.0,1,G1,336.433,3.847600000000001,73.36240000000001,17.0,2.0,2.0,8.0,4.0,94.0,1.0,0.0,0.0,1.0,41.129999999999995,123.30380706435498,2.8579212139776007,406.86295356568047
B-2598,"1,3-benzenedicarboxylic acid, 2-nitro-","InChI=1S/C8H5NO6/c10-7(11)4-2-1-3-5(8(12)13)6(4)9(14)15/h1-3H,(H,10,11)(H,12,13)",CAHWDGJDQYAFHM-UHFFFAOYSA-N,O=C(O)c1cccc(C(=O)O)c1[N+](=O)[O-],-1.9901,0.0,1,G1,211.12899999999996,0.9912,47.01499999999999,15.0,4.0,2.0,7.0,3.0,78.0,1.0,0.0,0.0,1.0,117.74,82.72577477526953,3.55594512931231,420.1951582999609
B-2599,prynachlor,"InChI=1S/C12H12ClNO/c1-3-10(2)14(12(15)9-13)11-7-5-4-6-8-11/h1,4-8,10H,9H2,2H3",DGPBHERUGBOSFZ-UHFFFAOYSA-N,C#CC(C)N(C(=O)CCl)c1ccccc1,-2.6468,0.0,1,G1,221.687,2.2801,62.94300000000003,15.0,1.0,0.0,3.0,3.0,78.0,1.0,0.0,0.0,1.0,20.31,94.84490319486471,3.028043102993094,368.95855109193303
B-2605,"benzoic acid, 5-bromo-2-chloro-","InChI=1S/C7H4BrClO2/c8-4-1-2-6(9)5(3-4)7(10)11/h1-3H,(H,10,11)/p-1",FGERXQWKKIVFQG-UHFFFAOYSA-M,O=C([O-])c1cc(Br)ccc1Cl,-1.952,0.0,1,G1,234.456,1.466,43.48250000000001,11.0,2.0,0.0,4.0,1.0,58.0,1.0,0.0,0.0,1.0,40.129999999999995,76.92291491865637,3.232208870305491,298.492089776386
B-2607,"acetic acid, 1-(3,4-dichlorophenyl)-2,2,2-trichl","InChI=1S/C10H7Cl5O2/c1-5(16)17-9(10(13,14)15)6-2-3-7(11)8(12)4-6/h2-4,9H,1H3",FSGNOVKGEXRRHD-UHFFFAOYSA-N,CC(=O)OC(c1ccc(Cl)c(Cl)c1)C(Cl)(Cl)Cl,-3.8279,0.0,1,G1,336.429,4.967800000000001,71.25900000000003,17.0,2.0,0.0,7.0,2.0,94.0,1.0,0.0,0.0,1.0,26.3,123.68257004104238,3.128261267611269,427.19470079086693
B-2614,tetrachlorvinphos,"InChI=1S/C10H9Cl4O4P/c1-16-19(15,17-2)18-10(5-11)6-3-8(13)9(14)4-7(6)12/h3-5H,1-2H3/b10-5+",UBCKGWBNUIFUST-BJMVGYQFSA-N,COP(=O)(OC)O/C(=C/Cl)c1cc(Cl)c(Cl)cc1Cl,-4.5221,0.0,1,G1,365.96400000000006,5.6015000000000015,78.01150000000003,19.0,4.0,0.0,9.0,5.0,106.0,1.0,0.0,0.0,1.0,44.760000000000005,130.30487981542154,3.195069219267893,538.5763442423939
B-2615,"acetamide, n-(4-ethoxyphenyl)-2-hydroxy-","InChI=1S/C10H13NO3/c1-2-14-9-5-3-8(4-6-9)11-10(13)7-12/h3-6,12H,2,7H2,1H3,(H,11,13)",UJUHYRDNSIRHHG-UHFFFAOYSA-N,CCOc1ccc(NC(=O)CO)cc1,-2.1058,0.0,1,G1,195.218,1.0161,53.326500000000024,14.0,3.0,2.0,4.0,4.0,76.0,1.0,0.0,0.0,1.0,58.56,82.51033484243811,2.589071736723409,294.7403499173812
B-2617,"methanesulfonamide, n-phenyl-n-((1,1,2,2-tetrach","InChI=1S/C9H8Cl4FNO2S2/c1-19(16,17)15(7-5-3-2-4-6-7)18-9(12,13)8(10,11)14/h2-6H,1H3",SVIKNKPDPGCMAE-UHFFFAOYSA-N,CS(=O)(=O)N(SC(Cl)(Cl)C(F)(Cl)Cl)c1ccccc1,-5.1485,0.0,1,G1,387.112,4.333100000000003,81.33780000000002,19.0,3.0,0.0,10.0,5.0,108.0,1.0,0.0,0.0,1.0,37.38,134.68392687175188,3.165799885045667,532.9006318339561
B-2618,"benzenepropanoic acid, 2-nitro-.beta.-oxo-","InChI=1S/C9H7NO5/c11-8(5-9(12)13)6-3-1-2-4-7(6)10(14)15/h1-4H,5H2,(H,12,13)",PJDGOXXKHPBMQA-UHFFFAOYSA-N,O=C(O)CC(=O)c1ccccc1[N+](=O)[O-],-1.8434,0.0,1,G1,209.157,1.2522,49.67970000000001,15.0,4.0,1.0,6.0,4.0,78.0,1.0,0.0,0.0,1.0,97.51,84.29648313747012,3.077424312421191,426.26580986612225
B-2630,formetanate hydrochloride,"InChI=1S/C11H15N3O2.ClH/c1-12-11(15)16-10-6-4-5-9(7-10)13-8-14(2)3;/h4-8H,1-3H3,(H,12,15);1H",MYPKGPZHHQEODQ-UHFFFAOYSA-N,CNC(=O)Oc1cccc(N=CN(C)C)c1.[Cl-].[H+],0.5037,0.0,1,G1,257.721,-1.2572999999999988,64.47670000000002,17.0,3.0,1.0,6.0,3.0,94.0,1.0,0.0,0.0,1.0,53.93,108.37409098274712,0.0,399.62964438741056
B-2633,thiophanate-methyl,"InChI=1S/C12H14N4O4S2/c1-19-11(17)15-9(21)13-7-5-3-4-6-8(7)14-10(22)16-12(18)20-2/h3-6H,1-2H3,(H2,13,15,17,21)(H2,14,16,18,22)",QGHREAKMXXNCOA-UHFFFAOYSA-N,COC(=O)NC(=S)Nc1ccccc1NC(=S)NC(=O)OC,-4.1097,0.0,1,G1,342.4020000000001,1.7921999999999998,89.96480000000001,22.0,6.0,4.0,10.0,2.0,118.0,1.0,0.0,0.0,1.0,100.72,137.08819969381986,2.7297769021233167,543.2439175521262
B-2641,pronamide,"InChI=1S/C12H11Cl2NO/c1-4-12(2,3)15-11(16)8-5-9(13)7-10(14)6-8/h1,5-7H,2-3H3,(H,15,16)",PHNUZKMIPFFYSO-UHFFFAOYSA-N,C#CC(C)(C)NC(=O)c1cc(Cl)cc(Cl)c1,-4.2324,0.0,1,G1,256.13199999999995,3.1350000000000016,66.84020000000002,16.0,1.0,1.0,4.0,2.0,84.0,1.0,0.0,0.0,1.0,29.1,104.93819793515104,2.9422622687262594,440.32683161976377
B-2644,2-methyl-4-bromoacetanilide,"InChI=1S/C9H10BrNO/c1-6-5-8(10)3-4-9(6)11-7(2)12/h3-5H,1-2H3,(H,11,12)",IJZSFOIZVXCSFP-UHFFFAOYSA-N,CC(=O)Nc1ccc(Br)cc1C,-1.756,0.0,1,G1,228.08899999999997,2.715920000000001,53.18270000000002,12.0,1.0,1.0,3.0,1.0,64.0,1.0,0.0,0.0,1.0,29.1,80.10516135197996,2.93480212462999,309.39688695312145
B-2645,"acetamide-2-chloro-n-(2,6-dimethylphenyl)-n-((2-","InChI=1S/C15H22ClNO2/c1-11(2)9-19-10-17(14(18)8-16)15-12(3)6-5-7-13(15)4/h5-7,11H,8-10H2,1-4H3",BIQOEDQVNIYWPQ-UHFFFAOYSA-N,Cc1cccc(C)c1N(COCC(C)C)C(=O)CCl,-3.6822,0.0,1,G1,283.79900000000004,3.505340000000002,79.77900000000005,19.0,2.0,0.0,4.0,6.0,106.0,1.0,0.0,0.0,1.0,29.54,120.05404937570212,2.934185524729387,411.903792738549
B-2651,"phenol, 2-iodo-6-methyl-","InChI=1S/C7H7IO/c1-5-3-2-4-6(8)7(5)9/h2-4,9H,1H3",GZZUGNNHSZONTO-UHFFFAOYSA-N,Cc1cccc(I)c1O,-1.8378,0.0,1,G1,234.036,2.3052200000000007,45.560800000000015,9.0,1.0,1.0,2.0,0.0,48.0,1.0,0.0,0.0,1.0,20.23,67.85241710713322,3.2478347337367026,199.9061775999341
B-2656,"acetic acid, (2,4-dinitrophenoxy)-","InChI=1S/C8H6N2O7/c11-8(12)4-17-7-2-1-5(9(13)14)3-6(7)10(15)16/h1-3H,4H2,(H,11,12)",OWEDBRWCJFWVFZ-UHFFFAOYSA-N,O=C(O)COc1ccc([N+](=O)[O-])cc1[N+](=O)[O-],-1.9369,0.0,1,G1,242.14299999999997,0.9664,52.8816,17.0,6.0,1.0,9.0,5.0,90.0,1.0,0.0,0.0,1.0,132.81,93.53653987503642,3.0834034339869945,484.7620802594193
B-2658,"2,4-d, isooctyl ester","InChI=1S/C16H22Cl2O3/c1-3-5-6-12(4-2)10-21-16(19)11-20-15-8-7-13(17)9-14(15)18/h7-9,12H,3-6,10-11H2,1-2H3",QZSFJRIWRPJUOH-UHFFFAOYSA-N,CCCCC(CC)COC(=O)COc1ccc(Cl)cc1Cl,-7.0122,0.0,1,G1,333.255,5.131800000000005,86.22200000000005,21.0,3.0,0.0,5.0,9.0,118.0,1.0,0.0,0.0,1.0,35.53,136.0759692762839,2.329795846341474,449.14827114518977
B-2662,mcpa-thioethyl,"InChI=1S/C11H13ClO2S/c1-3-15-11(13)7-14-10-5-4-9(12)6-8(10)2/h4-6H,3,7H2,1-2H3",AZFKQCNGMSSWDS-UHFFFAOYSA-N,CCSC(=O)COc1ccc(Cl)cc1C,-5.027,0.0,1,G1,244.743,3.3069200000000016,64.82300000000002,15.0,3.0,0.0,4.0,4.0,82.0,1.0,0.0,0.0,1.0,26.3,98.95755727327756,2.5396182727640744,352.4412000308171
B-2663,1-<hydroxyimino-(seqtrans)>-1-phenyl-acetone,"InChI=1S/C9H9NO2/c1-7(11)9(10-12)8-5-3-2-4-6-8/h2-6,12H,1H3/b10-9+",YQHWURFNAULYNW-MDZDMXLPSA-N,CC(=O)/C(=N\O)c1ccccc1,-2.3676,0.0,1,G1,163.176,1.4539,45.44650000000002,12.0,3.0,1.0,3.0,2.0,62.0,1.0,0.0,0.0,1.0,49.66,70.33134630026466,3.0533748493861492,303.5643909481188
B-2666,hydroxycinnamic acid,"InChI=1S/C9H8O3/c10-8-3-1-2-7(6-8)4-5-9(11)12/h1-6,10H,(H,11,12)/b5-4-",KKSDGJDHHZEWEP-PLNGDYQASA-N,O=C(O)/C=C\c1cccc(O)c1,-2.099,0.0,1,G1,164.16,1.49,44.776600000000016,12.0,2.0,2.0,3.0,2.0,62.0,1.0,0.0,0.0,1.0,57.53,69.58661603493832,2.826395262966909,315.3046159437918
B-2681,"pentanoic acid, 4-oxo-3-(phenylmethylene)-","InChI=1S/C12H12O3/c1-9(13)11(8-12(14)15)7-10-5-3-2-4-6-10/h2-7H,8H2,1H3,(H,14,15)",BNQYXFAVUMPZFG-UHFFFAOYSA-N,CC(=O)C(=Cc1ccccc1)CC(=O)O,-1.6111,0.0,1,G1,204.225,2.1337,57.35280000000003,15.0,2.0,1.0,3.0,4.0,78.0,1.0,0.0,0.0,1.0,54.37,88.04873072597591,2.9404586486889475,390.58807572015945
B-2696,diisooctyl phthalate,"InChI=1S/C24H38O4/c1-19(2)13-7-5-11-17-27-23(25)21-15-9-10-16-22(21)24(26)28-18-12-6-8-14-20(3)4/h9-10,15-16,19-20H,5-8,11-14,17-18H2,1-4H3",IJFPVINAQGWBRJ-UHFFFAOYSA-N,CC(C)CCCCCOC(=O)c1ccccc1C(=O)OCCCCCC(C)C,-6.6375,0.0,1,G1,390.5640000000003,6.433000000000007,113.61900000000009,28.0,4.0,0.0,4.0,14.0,158.0,1.0,0.0,0.0,1.0,52.60000000000001,170.55049583773726,2.388879530306986,526.7228097510647
B-2703,chloromethiuron,"InChI=1S/C10H13ClN2S/c1-7-6-8(11)4-5-9(7)12-10(14)13(2)3/h4-6H,1-3H3,(H,12,14)",IBZZDPVVVSNQOY-UHFFFAOYSA-N,Cc1cc(Cl)ccc1NC(=S)N(C)C,-3.6604,0.0,1,G1,228.748,2.9068200000000006,66.09670000000003,14.0,1.0,1.0,4.0,1.0,76.0,1.0,0.0,0.0,1.0,15.27,94.86291390498135,2.821792429202683,349.9752768616323
B-2710,dinitramine,"InChI=1S/C11H13F3N4O4/c1-3-16(4-2)9-7(17(19)20)5-6(11(12,13)14)8(15)10(9)18(21)22/h5H,3-4,15H2,1-2H3",OFDYMSKSGFSLLM-UHFFFAOYSA-N,CCN(CC)c1c([N+](=O)[O-])cc(C(F)(F)F)c(N)c1[N+](=O)[O-],-5.4668,0.9529,2,G2,322.243,2.9502000000000006,72.72619999999999,22.0,6.0,1.0,11.0,5.0,122.0,1.0,0.0,0.0,1.0,115.54000000000002,122.15839571247436,3.926692551025889,614.3352259724758