ID,Name,InChI,InChIKey,SMILES,Solubility,SD,Occurrences,Group,MolWt,MolLogP,MolMR,HeavyAtomCount,NumHAcceptors,NumHDonors,NumHeteroatoms,NumRotatableBonds,NumValenceElectrons,NumAromaticRings,NumSaturatedRings,NumAliphaticRings,RingCount,TPSA,LabuteASA,BalabanJ,BertzCT
A-2489,"N-{5-[bis(prop-2-en-1-yl)amino]-2-[(E)-2-(2-chloro-4,6-dinitrophenyl)diazen-1-yl]-4-methoxyphenyl}acetamide","InChI=1S/C21H21ClN6O6/c1-5-7-26(8-6-2)18-11-16(23-13(3)29)17(12-20(18)34-4)24-25-21-15(22)9-14(27(30)31)10-19(21)28(32)33/h5-6,9-12H,1-2,7-8H2,3-4H3,(H,23,29)",DKEXINVRFGWAKP-UHFFFAOYSA-N,C=CCN(CC=C)c1cc(NC(C)=O)c(N=Nc2c(Cl)cc([N+](=O)[O-])cc2[N+](=O)[O-])cc1OC,-4.3881793818,0.0,1,G1,488.8880000000004,5.7172000000000045,128.84150000000005,34.0,9.0,1.0,13.0,11.0,178.0,2.0,0.0,0.0,2.0,152.57000000000002,199.0345289904944,2.6798155909313164,1172.8291848119884
A-2500,"2-{[2-(acetyloxy)ethyl]({4-[(E)-2-(2-bromo-4,6-dinitrophenyl)diazen-1-yl]-5-acetamido-2-methoxyphenyl})amino}ethyl acetate","InChI=1S/C23H25BrN6O10/c1-13(31)25-18-11-20(28(5-7-39-14(2)32)6-8-40-15(3)33)22(38-4)12-19(18)26-27-23-17(24)9-16(29(34)35)10-21(23)30(36)37/h9-12H,5-8H2,1-4H3,(H,25,31)",JSRUDOBCTLPTFO-UHFFFAOYSA-N,COc1cc(N=Nc2c(Br)cc([N+](=O)[O-])cc2[N+](=O)[O-])c(NC(C)=O)cc1N(CCOC(C)=O)CCOC(C)=O,-5.4951202425,1.2925133260000004,2,G2,625.3890000000002,4.580500000000004,144.4034999999998,40.0,13.0,1.0,17.0,13.0,214.0,2.0,0.0,0.0,2.0,205.17,235.25803532151713,2.6110461340621867,1329.909927732078
A-2511,3-[[2-(2-cyanoethoxy)ethyl][4-[(4-nitrophenyl)azo]phenyl]amino]propiononitrile,"InChI=1S/C20H20N6O3/c21-11-1-13-25(14-16-29-15-2-12-22)19-7-3-17(4-8-19)23-24-18-5-9-20(10-6-18)26(27)28/h3-10H,1-2,13-16H2",PNWYPUYECVECFF-UHFFFAOYSA-N,N#CCCOCCN(CCC#N)c1ccc(N=Nc2ccc([N+](=O)[O-])cc2)cc1,-4.5937500267,0.0,1,G1,392.41900000000027,4.660560000000005,107.20640000000006,29.0,8.0,0.0,9.0,11.0,148.0,2.0,0.0,0.0,2.0,127.91,168.1663260703705,1.981954006221757,897.7991580769424
A-2513,"N-{2-[(E)-2-(2-chloro-4,6-dinitrophenyl)diazen-1-yl]-5-(diethylamino)-4-methoxyphenyl}acetamide","InChI=1S/C19H21ClN6O6/c1-5-24(6-2)16-9-14(21-11(3)27)15(10-18(16)32-4)22-23-19-13(20)7-12(25(28)29)8-17(19)26(30)31/h7-10H,5-6H2,1-4H3,(H,21,27)",LJIKWZXCXJFCCB-UHFFFAOYSA-N,CCN(CC)c1cc(NC(C)=O)c(N=Nc2c(Cl)cc([N+](=O)[O-])cc2[N+](=O)[O-])cc1OC,-4.6673277833,0.0,1,G1,464.8660000000002,5.385000000000005,119.79550000000008,32.0,9.0,1.0,13.0,9.0,170.0,2.0,0.0,0.0,2.0,152.57,187.6838508260697,2.6639877401405005,1086.4632009719116
A-2620,"N-{2-[(2-cyano-4,6-dinitrophenyl)diazenyl]-5-(diethylamino)phenyl}acetamide","InChI=1S/C19H19N7O5/c1-4-24(5-2)14-6-7-16(17(9-14)21-12(3)27)22-23-19-13(11-20)8-15(25(28)29)10-18(19)26(30)31/h6-10H,4-5H2,1-3H3,(H,21,27)",NHBNDXGKNAEBAI-UHFFFAOYSA-N,CCN(CC)c1ccc(N=Nc2c(C#N)cc([N+](=O)[O-])cc2[N+](=O)[O-])c(NC(C)=O)c1,-6.327772594400001,0.0,1,G1,425.40500000000014,4.594680000000004,112.94850000000002,31.0,9.0,1.0,12.0,8.0,160.0,2.0,0.0,0.0,2.0,167.13,176.65961905114983,2.6073291407288486,1103.555988696724
A-2681,2-{[2-(acetyloxy)ethyl]({4-[(E)-2-(2-chloro-4-nitrophenyl)diazen-1-yl]-3-acetamidophenyl})amino}ethyl acetate,"InChI=1S/C22H24ClN5O7/c1-14(29)24-22-13-17(27(8-10-34-15(2)30)9-11-35-16(3)31)4-7-21(22)26-25-20-6-5-18(28(32)33)12-19(20)23/h4-7,12-13H,8-11H2,1-3H3,(H,24,29)",ORDDDNUMJXPGOC-UHFFFAOYSA-N,CC(=O)Nc1cc(N(CCOC(C)=O)CCOC(C)=O)ccc1N=Nc1ccc([N+](=O)[O-])cc1Cl,-6.963714866599999,0.0,1,G1,505.9150000000004,4.554600000000004,128.5071000000001,35.0,10.0,1.0,13.0,11.0,186.0,2.0,0.0,0.0,2.0,152.79999999999998,205.56229087635413,2.332903257014509,1119.1728361137357
A-2752,"N-{2-[(E)-2-(2,6-dicyano-4-methylphenyl)diazen-1-yl]-5-(diethylamino)phenyl}methanesulfonamide","InChI=1S/C20H22N6O2S/c1-5-26(6-2)17-7-8-18(19(11-17)25-29(4,27)28)23-24-20-15(12-21)9-14(3)10-16(20)13-22/h7-11,25H,5-6H2,1-4H3",NSLHLMXJNOITEZ-UHFFFAOYSA-N,CCN(CC)c1ccc(N=Nc2c(C#N)cc(C)cc2C#N)c(NS(C)(=O)=O)c1,-7.2331050936,0.0,1,G1,410.5030000000001,4.371480000000004,113.25450000000004,29.0,7.0,1.0,9.0,7.0,150.0,2.0,0.0,0.0,2.0,121.70999999999998,170.71044319438687,2.581224188198245,1087.6311487027
A-2754,2-[[4-[(2-cyano-3-nitrophenyl)azo]-m-tolyl](2-acetoxyethyl)amino]ethyl acetate,"InChI=1S/C21H21N5O6/c1-15(27)31-11-9-25(10-12-32-16(2)28)19-5-3-18(4-6-19)23-24-21-8-7-20(26(29)30)13-17(21)14-22/h3-8,13H,9-12H2,1-2H3",GRMDKKJYMUDEJO-UHFFFAOYSA-N,CC(=O)OCCN(CCOC(C)=O)c1ccc(N=Nc2ccc([N+](=O)[O-])cc2C#N)cc1,-7.300465045499999,0.0,1,G1,439.42800000000017,3.8144800000000023,113.90840000000006,32.0,10.0,0.0,11.0,10.0,166.0,2.0,0.0,0.0,2.0,147.48999999999998,183.57527793289276,2.125292797781904,1025.6360245672397
A-2756,3-[ethyl[4-[(4-nitrophenyl)azo]phenyl]amino]propiononitrile,"InChI=1S/C17H17N5O2/c1-2-21(13-3-12-18)16-8-4-14(5-9-16)19-20-15-6-10-17(11-7-15)22(23)24/h4-11H,2-3,13H2,1H3",ZSPPPAFDNHYXNW-UHFFFAOYSA-N,CCN(CCC#N)c1ccc(N=Nc2ccc([N+](=O)[O-])cc2)cc1,-7.208650928200001,0.0,1,G1,323.35600000000005,4.750180000000004,91.83140000000006,24.0,6.0,0.0,7.0,7.0,122.0,2.0,0.0,0.0,2.0,94.89,139.56537481620504,2.048173162326947,748.045523858105
A-2834,"sodium 2,4-diamino-5-[(E)-2-(2-hydroxy-5-nitrophenyl)diazen-1-yl]benzene-1-sulfonate","InChI=1S/C12H11N5O6S.Na/c13-7-4-8(14)12(24(21,22)23)5-9(7)15-16-10-3-6(17(19)20)1-2-11(10)18;/h1-5,18H,13-14H2,(H,21,22,23);/q;+1/p-1",QHMUUKSTOXAOST-UHFFFAOYSA-M,Nc1cc(N)c(S(=O)(=O)[O-])cc1N=Nc1cc([N+](=O)[O-])ccc1O.[Na+],-0.7639420940999999,0.0,1,G1,375.2980000000001,-1.2116999999999991,82.1672,25.0,10.0,3.0,13.0,4.0,126.0,2.0,0.0,0.0,2.0,197.33,163.10430167152396,3.124997327085682e-06,962.7083780256042
A-4393,[2-[[4-[(2-chloro-4-nitrophenyl)azo]phenyl]ethylamino]ethyl](2-hydroxypropyl)dimethylammonium acetate,"InChI=1S/C21H29ClN5O3.C2H4O2/c1-5-25(12-13-27(3,4)15-16(2)28)18-8-6-17(7-9-18)23-24-21-11-10-19(26(29)30)14-20(21)22;1-2(3)4/h6-11,14,16,28H,5,12-13,15H2,1-4H3;1H3,(H,3,4)/q+1;/p-1",XSFKEMHKDFPDNK-UHFFFAOYSA-M,CC(=O)[O-].CCN(CC[N+](C)(C)CC(C)O)c1ccc(N=Nc2ccc([N+](=O)[O-])cc2Cl)cc1,-0.5731459846,0.0,1,G1,493.99200000000025,3.7033000000000023,130.81560000000005,34.0,8.0,1.0,11.0,10.0,186.0,2.0,0.0,0.0,2.0,131.45999999999998,204.39133996276135,1.3344994622146738e-06,976.216176751534
A-4394,[2-[[4-[(2-chloro-4-nitrophenyl)azo]phenyl]ethylamino]ethyl](2-hydroxypropyl)dimethylammonium chloride,"InChI=1S/C21H29ClN5O3.ClH/c1-5-25(12-13-27(3,4)15-16(2)28)18-8-6-17(7-9-18)23-24-21-11-10-19(26(29)30)14-20(21)22;/h6-11,14,16,28H,5,12-13,15H2,1-4H3;1H/q+1;/p-1",ACBFJDARQXVXLX-UHFFFAOYSA-M,CCN(CC[N+](C)(C)CC(C)O)c1ccc(N=Nc2ccc([N+](=O)[O-])cc2Cl)cc1.[Cl-],-0.5518943050999999,0.0,1,G1,470.40100000000024,1.9511000000000012,120.13460000000006,31.0,6.0,1.0,10.0,10.0,170.0,2.0,0.0,0.0,2.0,91.32999999999998,193.85296198074855,4.804992154946684e-06,889.0839826549796
A-5493,"2-{[2-(acetyloxy)ethyl]({4-[(E)-2-(2-chloro-4,6-dinitrophenyl)diazen-1-yl]-5-acetamido-2-methoxyphenyl})amino}ethyl acetate","InChI=1S/C23H25ClN6O10/c1-13(31)25-18-11-20(28(5-7-39-14(2)32)6-8-40-15(3)33)22(38-4)12-19(18)26-27-23-17(24)9-16(29(34)35)10-21(23)30(36)37/h9-12H,5-8H2,1-4H3,(H,25,31)",VRTQJBZLCYJJCI-UHFFFAOYSA-N,COc1cc(N=Nc2c(Cl)cc([N+](=O)[O-])cc2[N+](=O)[O-])c(NC(C)=O)cc1N(CCOC(C)=O)CCOC(C)=O,-5.4630997896,1.2925133259999997,2,G2,580.9380000000003,4.471400000000004,141.71349999999987,40.0,13.0,1.0,17.0,13.0,214.0,2.0,0.0,0.0,2.0,205.17,231.69375394275744,2.6110461340621867,1329.909927732078
A-5730,"3,3'-[[4-[(2,6-dichloro-4-nitrophenyl)azo]phenyl]imino]bispropiononitrile","InChI=1S/C18H14Cl2N6O2/c19-16-11-15(26(27)28)12-17(20)18(16)24-23-13-3-5-14(6-4-13)25(9-1-7-21)10-2-8-22/h3-6,11-12H,1-2,9-10H2",MUERWWKQVXXPML-UHFFFAOYSA-N,N#CCCN(CCC#N)c1ccc(N=Nc2c(Cl)cc([N+](=O)[O-])cc2Cl)cc1,-7.115252612100001,0.0,1,G1,417.2560000000003,5.950760000000003,106.40740000000004,28.0,7.0,0.0,10.0,8.0,142.0,2.0,0.0,0.0,2.0,118.67999999999998,170.92942906583372,2.1858464355782146,922.5167213637144
A-6004,"N-{5-[bis(prop-2-en-1-yl)amino]-2-[(E)-2-(2-bromo-4,6-dinitrophenyl)diazen-1-yl]-4-methoxyphenyl}acetamide","InChI=1S/C21H21BrN6O6/c1-5-7-26(8-6-2)18-11-16(23-13(3)29)17(12-20(18)34-4)24-25-21-15(22)9-14(27(30)31)10-19(21)28(32)33/h5-6,9-12H,1-2,7-8H2,3-4H3,(H,23,29)",WXDXQSMFRITTEJ-UHFFFAOYSA-N,C=CCN(CC=C)c1cc(NC(C)=O)c(N=Nc2c(Br)cc([N+](=O)[O-])cc2[N+](=O)[O-])cc1OC,-7.0093328393,0.0,1,G1,533.3390000000003,5.826300000000005,131.5315,34.0,9.0,1.0,13.0,11.0,178.0,2.0,0.0,0.0,2.0,152.57000000000002,202.59881036925407,2.6798155909313164,1172.8291848119884
A-6013,methyl 3-[[4-(2-bromo-6-chloro-4-nitrophenyl)diazenylphenyl]-(3-methoxy-3-oxopropyl)amino]propanoate,"InChI=1S/C20H20BrClN4O6/c1-31-18(27)7-9-25(10-8-19(28)32-2)14-5-3-13(4-6-14)23-24-20-16(21)11-15(26(29)30)12-17(20)22/h3-6,11-12H,7-10H2,1-2H3",SGXLDQRCIYZKPS-UHFFFAOYSA-N,COC(=O)CCN(CCC(=O)OC)c1ccc(N=Nc2c(Cl)cc([N+](=O)[O-])cc2Br)cc1,-7.1002216252,0.0,1,G1,527.7590000000001,5.358700000000004,121.90340000000003,32.0,9.0,0.0,12.0,10.0,170.0,2.0,0.0,0.0,2.0,123.70000000000002,196.98856996955044,2.1708756643147806,972.6447209324232
A-6015,"2-[N-(2-cyanoethyl)-4-[(2,6-dichloro-4-nitrophenyl)azo]anilino]ethyl acetate","InChI=1S/C19H17Cl2N5O4/c1-13(27)30-10-9-25(8-2-7-22)15-5-3-14(4-6-15)23-24-19-17(20)11-16(26(28)29)12-18(19)21/h3-6,11-12H,2,8-10H2,1H3",ROPYWXVRNREIQD-UHFFFAOYSA-N,CC(=O)OCCN(CCC#N)c1ccc(N=Nc2c(Cl)cc([N+](=O)[O-])cc2Cl)cc1,-7.0514245951,0.0,1,G1,450.2820000000002,5.600180000000004,112.81040000000002,30.0,8.0,0.0,11.0,9.0,156.0,2.0,0.0,0.0,2.0,121.19,182.17685882831225,2.145379685508491,966.4046657053486
A-6021,"N-{2-[(E)-2-(2-chloro-4,6-dinitrophenyl)diazen-1-yl]-5-(diethylamino)phenyl}acetamide","InChI=1S/C18H19ClN6O5/c1-4-23(5-2)12-6-7-15(16(9-12)20-11(3)26)21-22-18-14(19)8-13(24(27)28)10-17(18)25(29)30/h6-10H,4-5H2,1-3H3,(H,20,26)",YREBUQFUGONNSP-UHFFFAOYSA-N,CCN(CC)c1ccc(N=Nc2c(Cl)cc([N+](=O)[O-])cc2[N+](=O)[O-])c(NC(C)=O)c1,-7.1158852536,0.0,1,G1,434.8400000000002,5.376400000000004,113.24350000000008,30.0,8.0,1.0,12.0,8.0,158.0,2.0,0.0,0.0,2.0,143.34,176.20536348216618,2.54386569895491,1022.3668226958644
A-6025,"N-{2-[(E)-2-(2,6-dicyano-4-nitrophenyl)diazen-1-yl]-5-(diethylamino)phenyl}acetamide","InChI=1S/C20H19N7O3/c1-4-26(5-2)16-6-7-18(19(10-16)23-13(3)28)24-25-20-14(11-21)8-17(27(29)30)9-15(20)12-22/h6-10H,4-5H2,1-3H3,(H,23,28)",LEGWLJGBFZBZSC-UHFFFAOYSA-N,CCN(CC)c1ccc(N=Nc2c(C#N)cc([N+](=O)[O-])cc2C#N)c(NC(C)=O)c1,-8.1027530485,0.0,1,G1,405.4180000000001,4.558160000000004,111.00910000000005,30.0,8.0,1.0,10.0,7.0,152.0,2.0,0.0,0.0,2.0,147.77999999999997,172.76416512451536,2.5634059930813895,1057.5496597686135
A-6033,"methyl 3-({4-[(E)-2-(2,4-dinitrophenyl)diazen-1-yl]-3-acetamidophenyl}(3-methoxy-3-oxopropyl)amino)propanoate","InChI=1S/C22H24N6O9/c1-14(29)23-19-12-15(26(10-8-21(30)36-2)11-9-22(31)37-3)4-6-17(19)24-25-18-7-5-16(27(32)33)13-20(18)28(34)35/h4-7,12-13H,8-11H2,1-3H3,(H,23,29)",FIIPIQBWGBRMTN-UHFFFAOYSA-N,COC(=O)CCN(CCC(=O)OC)c1ccc(N=Nc2ccc([N+](=O)[O-])cc2[N+](=O)[O-])c(NC(C)=O)c1,-7.3328313355,0.0,1,G1,516.4670000000003,3.809400000000002,130.15150000000003,37.0,12.0,1.0,15.0,12.0,196.0,2.0,0.0,0.0,2.0,195.94,209.91200037197223,2.4451826561702283,1211.1173657735571
A-6037,"N-{2-[(E)-2-(2-bromo-4,6-dinitrophenyl)diazen-1-yl]-5-(diethylamino)phenyl}acetamide","InChI=1S/C18H19BrN6O5/c1-4-23(5-2)12-6-7-15(16(9-12)20-11(3)26)21-22-18-14(19)8-13(24(27)28)10-17(18)25(29)30/h6-10H,4-5H2,1-3H3,(H,20,26)",WFFKSTRPZWRBEW-UHFFFAOYSA-N,CCN(CC)c1ccc(N=Nc2c(Br)cc([N+](=O)[O-])cc2[N+](=O)[O-])c(NC(C)=O)c1,-7.379569278300001,0.0,1,G1,479.2910000000002,5.485500000000004,115.93350000000008,30.0,8.0,1.0,12.0,8.0,158.0,2.0,0.0,0.0,2.0,143.34,179.7696448609259,2.54386569895491,1022.3668226958644
A-6049,"2-[[4-(diethylamino)-2-methylphenyl]azo]-5-nitrobenzene-1,3-dicarbonitrile","InChI=1S/C19H18N6O2/c1-4-24(5-2)16-6-7-18(13(3)8-16)22-23-19-14(11-20)9-17(25(26)27)10-15(19)12-21/h6-10H,4-5H2,1-3H3",HCOYTIPJLYJCDR-UHFFFAOYSA-N,CCN(CC)c1ccc(N=Nc2c(C#N)cc([N+](=O)[O-])cc2C#N)c(C)c1,-7.472819969600001,0.0,1,G1,362.3930000000001,4.908180000000004,101.44240000000003,27.0,7.0,0.0,8.0,6.0,136.0,2.0,0.0,0.0,2.0,118.67999999999998,156.68783872646694,2.454800498040971,945.6651133591262
B-44,4-dimethylamino-3'-methylazobenzene,"InChI=1S/C15H17N3/c1-12-5-4-6-14(11-12)17-16-13-7-9-15(10-8-13)18(2)3/h4-11H,1-3H3",LVTFSVIRYMXRSR-UHFFFAOYSA-N,Cc1cccc(N=Nc2ccc(N(C)C)cc2)c1,-5.7769,0.0,1,G1,239.32199999999995,4.476420000000004,76.12400000000004,18.0,3.0,0.0,3.0,3.0,92.0,2.0,0.0,0.0,2.0,27.96,107.78993518344328,2.136611707509363,541.9201015887003
B-1094,c.i. basic orange 2,"InChI=1S/C12H12N4.ClH/c13-9-6-7-12(11(14)8-9)16-15-10-4-2-1-3-5-10;/h1-8H,13-14H2;1H",MCTQNEBFZMBRSQ-UHFFFAOYSA-N,Nc1ccc(N=Nc2ccccc2)c(N)c1.[Cl-].[H+],-4.0947,0.0,1,G1,248.717,0.3829000000000001,66.99680000000001,17.0,4.0,2.0,5.0,2.0,88.0,2.0,0.0,0.0,2.0,76.75999999999999,107.25294818612048,1.4449996808250724e-06,516.7407894086176
B-1113,c.i. disperse black 3,"InChI=1S/C14H16N4/c1-18(2)14-9-7-13(8-10-14)17-16-12-5-3-11(15)4-6-12/h3-10H,15H2,1-2H3",BVRIUXYMUSKBHG-UHFFFAOYSA-N,CN(C)c1ccc(N=Nc2ccc(N)cc2)cc1,-4.593999999999999,0.0,1,G1,240.30999999999997,3.750200000000002,75.79940000000002,18.0,4.0,1.0,4.0,3.0,92.0,2.0,0.0,0.0,2.0,53.98,106.7648837660594,2.1096551630526696,526.7253791161851
B-2032,2-[n-(2-Hydroxyethyl)-3-methyl-4-phenyldiazenylanilino]ethanol,"InChI=1S/C17H21N3O2/c1-14-13-16(20(9-11-21)10-12-22)7-8-17(14)19-18-15-5-3-2-4-6-15/h2-8,13,21-22H,9-12H2,1H3",IXKVXPGDWDXXQM-UHFFFAOYSA-N,Cc1cc(N(CCO)CCO)ccc1N=Nc1ccccc1,-4.1254,0.0,1,G1,299.3740000000001,3.2014200000000037,88.18160000000005,22.0,5.0,2.0,5.0,7.0,116.0,2.0,0.0,0.0,2.0,68.42,130.10828691662857,2.1658797830782097,608.5560446706214
B-2067,4-chloroazobenzene,InChI=1S/C12H9ClN2/c13-10-6-8-12(9-7-10)15-14-11-4-2-1-3-5-11/h1-9H,NJFDMENHTAYHMA-UHFFFAOYSA-N,Clc1ccc(N=Nc2ccccc2)cc1,-5.7023,0.0,1,G1,216.671,4.7554000000000025,62.07000000000003,15.0,2.0,0.0,3.0,2.0,74.0,2.0,0.0,0.0,2.0,24.72,93.23854139693177,2.1529892819390977,448.8081523848772
B-2371,disperse blue 79,"InChI=1S/C24H27BrN6O10/c1-5-39-23-13-19(27-28-20-10-17(30(35)36)11-22(24(20)25)31(37)38)18(26-14(2)32)12-21(23)29(6-8-40-15(3)33)7-9-41-16(4)34/h10-13H,5-9H2,1-4H3,(H,26,32)",KOAZOWWCVCWYMN-UHFFFAOYSA-N,CCOc1cc(N=Nc2cc([N+](=O)[O-])cc([N+](=O)[O-])c2Br)c(NC(C)=O)cc1N(CCOC(C)=O)CCOC(C)=O,-8.8336,0.0,1,G1,639.4160000000002,4.970600000000005,149.0204999999998,41.0,13.0,1.0,17.0,14.0,220.0,2.0,0.0,0.0,2.0,205.17,241.6229774359137,2.6511230214655335,1346.9254903079543
B-3030,"benzenamine, 4-methyl-2-[(4-methylphenyl)azo]-","InChI=1S/C14H15N3/c1-10-3-6-12(7-4-10)16-17-14-9-11(2)5-8-13(14)15/h3-9H,15H2,1-2H3",BBVUAJTZGSWJDD-UHFFFAOYSA-N,Cc1ccc(N=Nc2cc(C)ccc2N)cc1,-3.9031,0.0,1,G1,225.295,4.301040000000003,70.94640000000003,17.0,3.0,1.0,3.0,2.0,86.0,2.0,0.0,0.0,2.0,50.739999999999995,101.005050095856,2.2523482219371145,541.8938223871523
B-3033,"4'-(Bis(2-hydroxyethyl)amino)-2,6-dichloro-2'-methyl-4-nitroazobenzene","InChI=1S/C17H18Cl2N4O4/c1-11-8-12(22(4-6-24)5-7-25)2-3-16(11)20-21-17-14(18)9-13(23(26)27)10-15(17)19/h2-3,8-10,24-25H,4-7H2,1H3",VJCRGIYTUNCUJU-UHFFFAOYSA-N,Cc1cc(N(CCO)CCO)ccc1N=Nc1c(Cl)cc([N+](=O)[O-])cc1Cl,-5.9592,0.0,1,G1,413.26100000000025,4.416420000000005,104.85600000000004,27.0,7.0,2.0,10.0,8.0,144.0,2.0,0.0,0.0,2.0,111.56,165.3677950928916,2.287471573882366,831.8173161380557
B-3186,azo dye n5,"InChI=1S/C23H24N6O4/c1-4-5-8-28(9-10-33-17(3)30)20-6-7-22(16(2)11-20)26-27-23-18(14-24)12-21(29(31)32)13-19(23)15-25/h6-7,11-13H,4-5,8-10H2,1-3H3",ARSKJXYLLONUAJ-UHFFFAOYSA-N,CCCCN(CCOC(C)=O)c1ccc(N=Nc2c(C#N)cc([N+](=O)[O-])cc2C#N)c(C)c1,-8.8809,0.0,1,G1,448.48300000000023,5.2315800000000054,121.63540000000006,33.0,9.0,0.0,10.0,10.0,170.0,2.0,0.0,0.0,2.0,144.98,191.4226745136041,2.327513212350579,1111.6113426912652
B-4154,azobenzene,InChI=1S/C12H10N2/c1-3-7-11(8-4-1)13-14-12-9-5-2-6-10-12/h1-10H,DMLAVOWQYNRWNQ-UHFFFAOYSA-N,c1ccc(N=Nc2ccccc2)cc1,-4.4544,0.2571999999999999,2,G3,182.22600000000003,4.102000000000002,57.06000000000003,14.0,2.0,0.0,2.0,2.0,68.0,2.0,0.0,0.0,2.0,24.72,82.93527517005009,2.159341417811232,365.35156717534267
C-1070,"N-[2-[(2-Bromo-4,6-dinitrophenyl)azo]-5-[(2-cyanoethyl)-2-propenylamino]-4-methoxyphenyl]acetamide","InChI=1S/C21H20BrN7O6/c1-4-7-27(8-5-6-23)18-11-16(24-13(2)30)17(12-20(18)35-3)25-26-21-15(22)9-14(28(31)32)10-19(21)29(33)34/h4,9-12H,1,5,7-8H2,2-3H3,(H,24,30)",WUAQCCUTLFMZFP-UHFFFAOYSA-N,C=CCN(CCC#N)c1cc(NC(C)=O)c(N=Nc2c(Br)cc([N+](=O)[O-])cc2[N+](=O)[O-])cc1OC,-8.9,0.0,1,G1,546.3380000000002,5.553980000000005,131.5645,35.0,10.0,1.0,14.0,11.0,182.0,2.0,0.0,0.0,2.0,176.36,207.6809930829071,2.6674261929815826,1241.644705096995
C-2157,2-[(4-phenylazophenyl)hydrazono]malononitrile,"InChI=1S/C15H10N6/c16-10-15(11-17)21-20-14-8-6-13(7-9-14)19-18-12-4-2-1-3-5-12/h1-9,20H",LDBWPTYGGBUCTJ-UHFFFAOYSA-N,N#CC(C#N)=NNc1ccc(N=Nc2ccccc2)cc1,-4.92,0.0,1,G1,274.28700000000003,3.917060000000002,79.34370000000001,21.0,6.0,1.0,6.0,4.0,100.0,2.0,0.0,0.0,2.0,96.69,121.2305815658805,2.031787898404213,716.4735770542255
D-1085,disperse red 1,"InChI=1S/C16H18N4O3/c1-2-19(11-12-21)15-7-3-13(4-8-15)17-18-14-5-9-16(10-6-14)20(22)23/h3-10,21H,2,11-12H2,1H3",FOQABOMYTOFLPZ-UHFFFAOYSA-N,CCN(CCO)c1ccc(N=Nc2ccc([N+](=O)[O-])cc2)cc1,-6.292999999999999,0.0,1,G1,314.345,3.828800000000003,88.68720000000005,23.0,6.0,1.0,7.0,7.0,120.0,2.0,0.0,0.0,2.0,91.32999999999998,133.60208677253573,2.06058221147532,668.7296328965323
D-1086,disperse red 5,"InChI=1S/C17H19ClN4O4/c1-12-10-13(21(6-8-23)7-9-24)2-4-16(12)19-20-17-5-3-14(22(25)26)11-15(17)18/h2-5,10-11,23-24H,6-9H2,1H3",NBEXAEYARUBYDV-UHFFFAOYSA-N,Cc1cc(N(CCO)CCO)ccc1N=Nc1ccc([N+](=O)[O-])cc1Cl,-6.57,0.0,1,G1,378.81600000000026,3.763020000000004,99.84600000000005,26.0,7.0,2.0,9.0,8.0,138.0,2.0,0.0,0.0,2.0,111.56,155.06452886600997,2.218296219534484,807.3450386671063
D-1088,azo dye n9,"InChI=1S/C17H16ClN5O3/c18-16-12-15(23(25)26)6-7-17(16)21-20-13-2-4-14(5-3-13)22(10-11-24)9-1-8-19/h2-7,12,24H,1,9-11H2",UHWBGWWOTKVSDD-UHFFFAOYSA-N,N#CCCN(CCO)c1ccc(N=Nc2ccc([N+](=O)[O-])cc2Cl)cc1,-6.13,0.0,1,G1,373.8000000000001,4.375980000000003,98.25320000000004,26.0,7.0,1.0,9.0,8.0,134.0,2.0,0.0,0.0,2.0,115.12,154.66287479528273,2.1182055651664946,833.2822582747106
F-254,4-chloro-3-[(4-hydroxyphenyl)diazenyl]benzoic acid,"InChI=1S/C13H9ClN2O3/c14-11-6-1-8(13(18)19)7-12(11)16-15-9-2-4-10(17)5-3-9/h1-7,17H,(H,18,19)",IDLIBMYXWLTILR-UHFFFAOYSA-N,O=C(O)c1ccc(Cl)c(N=Nc2ccc(O)cc2)c1,-4.08,0.0,1,G1,276.67900000000003,4.159200000000001,70.69410000000002,19.0,4.0,2.0,6.0,3.0,96.0,2.0,0.0,0.0,2.0,82.25,113.35347311576416,2.292398455996235,638.8366309730286
F-260,3-[(4-hydroxyphenyl)diazenyl]benzoic acid,"InChI=1S/C13H10N2O3/c16-12-6-4-10(5-7-12)14-15-11-3-1-2-9(8-11)13(17)18/h1-8,16H,(H,17,18)",MGQRCDWAEYGOIZ-UHFFFAOYSA-N,O=C(O)c1cccc(N=Nc2ccc(O)cc2)c1,-3.85,0.0,1,G1,242.234,3.5058000000000016,65.68410000000003,18.0,4.0,2.0,5.0,3.0,90.0,2.0,0.0,0.0,2.0,82.25,103.0502068888825,2.2036530882590504,591.4402812878075
F-261,2-[(4-hydroxyphenyl)diazenyl]benzoic acid,"InChI=1S/C13H10N2O3/c16-10-7-5-9(6-8-10)14-15-12-4-2-1-3-11(12)13(17)18/h1-8,16H,(H,17,18)",DWQOTEPNRWVUDA-UHFFFAOYSA-N,O=C(O)c1ccccc1N=Nc1ccc(O)cc1,-3.33,0.0,1,G1,242.23400000000004,3.5058000000000016,65.68410000000003,18.0,4.0,2.0,5.0,3.0,90.0,2.0,0.0,0.0,2.0,82.25,103.05020688888251,2.285443216774549,591.4402812878075
F-263,5-Chloro-2-[(E)-(4-hydroxyphenyl)diazenyl]benzoic acid,"InChI=1S/C13H9ClN2O3/c14-8-1-6-12(11(7-8)13(18)19)16-15-9-2-4-10(17)5-3-9/h1-7,17H,(H,18,19)",PFFPKQRMYJXVMY-UHFFFAOYSA-N,O=C(O)c1cc(Cl)ccc1N=Nc1ccc(O)cc1,-3.86,0.0,1,G1,276.67900000000003,4.159200000000001,70.69410000000002,19.0,4.0,2.0,6.0,3.0,96.0,2.0,0.0,0.0,2.0,82.25,113.35347311576416,2.324624183282462,638.8366309730286
F-676,2-Chloro-6-[(E)-(4-hydroxyphenyl)diazenyl]benzoic acid,"InChI=1S/C13H9ClN2O3/c14-10-2-1-3-11(12(10)13(18)19)16-15-8-4-6-9(17)7-5-8/h1-7,17H,(H,18,19)",LHLCXSQOCYXPTJ-UHFFFAOYSA-N,O=C(O)c1c(Cl)cccc1N=Nc1ccc(O)cc1,-3.0,0.0,1,G1,276.67900000000003,4.159200000000001,70.69410000000002,19.0,4.0,2.0,6.0,3.0,96.0,2.0,0.0,0.0,2.0,82.25,113.35347311576416,2.355750585367034,638.8366309730286