ID,Name,InChI,InChIKey,SMILES,Solubility,SD,Occurrences,Group,MolWt,MolLogP,MolMR,HeavyAtomCount,NumHAcceptors,NumHDonors,NumHeteroatoms,NumRotatableBonds,NumValenceElectrons,NumAromaticRings,NumSaturatedRings,NumAliphaticRings,RingCount,TPSA,LabuteASA,BalabanJ,BertzCT
B-1831,m-aminobenzonitrile,"InChI=1S/C7H6N2/c8-5-6-2-1-3-7(9)4-6/h1-4H,9H2",NJXPYZHXZZCTNI-UHFFFAOYSA-N,N#Cc1cccc(N)c1,-1.1693,0.0,1,G1,118.139,1.1404800000000002,35.569400000000016,9.0,2.0,1.0,2.0,0.0,44.0,1.0,0.0,0.0,1.0,49.81,53.528815612375,3.1192017919205197,247.3382179862608
B-1834,2-phenethylisothiocyanate,"InChI=1S/C9H9NS/c11-8-10-7-6-9-4-2-1-3-5-9/h1-5H,6-7H2",IZJDOKYDEWTZSO-UHFFFAOYSA-N,S=C=NCCc1ccccc1,-3.1714,0.0,1,G1,163.245,2.3319,50.03900000000002,11.0,2.0,0.0,2.0,3.0,56.0,1.0,0.0,0.0,1.0,12.36,71.7803321957518,2.4484927862349912,249.5250600730738
B-1837,5-phenylpentanoic acid,"InChI=1S/C11H14O2/c12-11(13)9-5-4-8-10-6-2-1-3-7-10/h1-3,6-7H,4-5,8-9H2,(H,12,13)",BYHDDXPKOZIZRV-UHFFFAOYSA-N,O=C(O)CCCCc1ccccc1,-2.4657,0.23285,2,G3,178.23100000000002,2.484000000000001,51.63280000000003,13.0,1.0,1.0,2.0,5.0,70.0,1.0,0.0,0.0,1.0,37.3,78.2118695437198,2.168624668395278,254.05260581186823
B-1839,"phosphoric acid,2-chloro-(2,4-dichlorophenyl)vin","InChI=1S/C10H10Cl3O4P/c1-15-18(14,16-2)17-10(6-11)8-4-3-7(12)5-9(8)13/h3-6H,1-2H3/b10-6-",QSGNQELHULIMSJ-POHAHGRESA-N,COP(=O)(OC)O/C(=C\Cl)c1ccc(Cl)cc1Cl,-3.4066,0.0,1,G1,331.519,4.948100000000002,73.00150000000002,18.0,4.0,0.0,8.0,5.0,100.0,1.0,0.0,0.0,1.0,44.760000000000005,120.0016135885399,3.086993894763407,495.89620112533026
B-1851,propyl benzoate,"InChI=1S/C10H12O2/c1-2-8-12-10(11)9-6-4-3-5-7-9/h3-7H,2,8H2,1H3",UDEWPOVQBGFNGE-UHFFFAOYSA-N,CCCOC(=O)c1ccccc1,-2.6701,0.0,1,G1,164.20399999999998,2.2534,47.01550000000003,12.0,2.0,0.0,2.0,3.0,64.0,1.0,0.0,0.0,1.0,26.3,72.16623890663405,2.539556056342092,241.27530899395387
B-1852,"benzenemethanol, 5-bromo-2-hydroxy-","InChI=1S/C7H7BrO2/c8-6-1-2-7(10)5(3-6)4-9/h1-3,9-10H,4H2",KNKRHSVKIORZQB-UHFFFAOYSA-N,OCc1cc(Br)ccc1O,-0.2072,0.0,1,G1,203.035,1.647,41.72960000000002,10.0,2.0,2.0,3.0,1.0,54.0,1.0,0.0,0.0,1.0,40.46,67.25236034392695,3.090683646458197,235.04775799182192
B-1854,"n-acetyl-l-phenylalanine, ethyl ester","InChI=1S/C13H17NO3/c1-3-17-13(16)12(14-10(2)15)9-11-7-5-4-6-8-11/h4-8,12H,3,9H2,1-2H3,(H,14,15)/t12-/m0/s1",YIVZYFDBEPMPNL-LBPRGKRZSA-N,CCOC(=O)[C@H](Cc1ccccc1)NC(C)=O,-1.7557,0.0,1,G1,235.283,1.2969,64.38370000000003,17.0,3.0,1.0,4.0,5.0,92.0,1.0,0.0,0.0,1.0,55.4,100.97244953347568,2.695351301044562,375.5107816340442
B-1855,"1,2,3,5-tetrafluorobenzene",InChI=1S/C6H2F4/c7-3-1-4(8)6(10)5(9)2-3/h1-2H,UHHYOKRQTQBKSB-UHFFFAOYSA-N,Fc1cc(F)c(F)c(F)c1,-2.3057,0.0,1,G1,150.074,2.2430000000000003,26.274,10.0,0.0,0.0,4.0,0.0,54.0,1.0,0.0,0.0,1.0,0.0,54.09354473120191,3.310532874722407,232.91988337222983
B-1864,1-chloro-3-isothiocyanato-benzene,InChI=1S/C7H4ClNS/c8-6-2-1-3-7(4-6)9-5-10/h1-4H,WGXCKFMVBAOIFH-UHFFFAOYSA-N,S=C=Nc1cccc(Cl)c1,-3.9507,0.0,1,G1,169.636,3.074300000000001,46.13800000000001,10.0,2.0,0.0,3.0,1.0,50.0,1.0,0.0,0.0,1.0,12.36,69.35371419384025,3.061972168711611,278.6895252608723
B-1874,"4-methyl-2,6-dichlorophenol","InChI=1S/C7H6Cl2O/c1-4-2-5(8)7(10)6(9)3-4/h2-3,10H,1H3",YXEOEPYIBGTLML-UHFFFAOYSA-N,Cc1cc(Cl)c(O)c(Cl)c1,-1.4202,0.0,1,G1,177.03,3.0074200000000006,42.86380000000002,10.0,1.0,1.0,3.0,0.0,54.0,1.0,0.0,0.0,1.0,20.23,69.19711143985293,3.310532874722407,234.77817392215357
B-1880,o-methoxybenzamide,"InChI=1S/C8H9NO2/c1-11-7-5-3-2-4-6(7)8(9)10/h2-5H,1H3,(H2,9,10)",MNWSGMTUGXNYHJ-UHFFFAOYSA-N,COc1ccccc1C(N)=O,-1.7815,0.0,1,G1,151.16499999999996,0.7941,41.51190000000001,11.0,2.0,1.0,3.0,2.0,58.0,1.0,0.0,0.0,1.0,52.32,64.77624537485353,3.121219318886157,270.54949758389114
B-1887,medinoterb acetate,"InChI=1S/C13H16N2O6/c1-7-9(14(17)18)6-10(15(19)20)12(21-8(2)16)11(7)13(3,4)5/h6H,1-5H3",GZJNBGYLANALSV-UHFFFAOYSA-N,CC(=O)Oc1c([N+](=O)[O-])cc([N+](=O)[O-])c(C)c1C(C)(C)C,-4.4717,0.0,1,G1,296.279,3.034220000000002,74.49680000000002,21.0,6.0,0.0,8.0,3.0,114.0,1.0,0.0,0.0,1.0,112.58,120.56701669482344,3.887186967012368,630.5291477180688
B-1893,2-nitro-5-chlorobenzoic acid,"InChI=1S/C7H4ClNO4/c8-4-1-2-6(9(12)13)5(3-4)7(10)11/h1-3H,(H,10,11)",ZKUYSJHXBFFGPU-UHFFFAOYSA-N,O=C(O)c1cc(Cl)ccc1[N+](=O)[O-],-1.319,0.0,1,G1,201.565,1.9464000000000004,45.0657,13.0,3.0,1.0,6.0,2.0,68.0,1.0,0.0,0.0,1.0,80.44,77.70834303551482,3.3486590713152182,376.7553335743196
B-1894,dibutyl phenyl phosphate,"InChI=1S/C14H23O4P/c1-3-5-12-16-19(15,17-13-6-4-2)18-14-10-8-7-9-11-14/h7-11H,3-6,12-13H2,1-2H3",YICSVBJRVMLQNS-UHFFFAOYSA-N,CCCCOP(=O)(OCCCC)Oc1ccccc1,-3.4746,0.0,1,G1,286.30799999999994,4.806900000000004,76.39650000000006,19.0,4.0,0.0,5.0,10.0,108.0,1.0,0.0,0.0,1.0,44.760000000000005,115.24118639766556,2.5914128917982353,366.29217101740784
B-1901,"acetamide, 2,2-dichloro-n-phenyl-","InChI=1S/C8H7Cl2NO/c9-7(10)8(12)11-6-4-2-1-3-5-6/h1-5,7H,(H,11,12)",KJSVAEGLTPBKAA-UHFFFAOYSA-N,O=C(Nc1ccccc1)C(Cl)Cl,-3.3555,0.0,1,G1,204.05600000000004,2.4288,50.565700000000014,12.0,1.0,1.0,4.0,2.0,64.0,1.0,0.0,0.0,1.0,29.1,80.47920408570535,2.5897829796017806,261.0201872896982
B-1904,3-methyl-4-nitrophenol,"InChI=1S/C7H7NO3/c1-5-4-6(9)2-3-7(5)8(10)11/h2-4,9H,1H3",PIIZYNQECPTVEO-UHFFFAOYSA-N,Cc1cc(O)ccc1[N+](=O)[O-],-2.1103,0.0,1,G1,153.13699999999997,1.60882,39.49820000000002,11.0,3.0,1.0,4.0,1.0,58.0,1.0,0.0,0.0,1.0,63.37,63.243554708589386,3.1960696621259204,295.7372022742226
B-1912,fenthoate,"InChI=1S/C12H17O4PS2/c1-4-16-12(13)11(10-8-6-5-7-9-10)19-17(18,14-2)15-3/h5-9,11H,4H2,1-3H3",XAMUDJHXFNRLCY-UHFFFAOYSA-N,CCOC(=O)C(SP(=S)(OC)OC)c1ccccc1,-4.4643,0.0,1,G1,320.37199999999996,3.5413000000000023,81.71000000000005,19.0,6.0,0.0,7.0,7.0,106.0,1.0,0.0,0.0,1.0,44.760000000000005,122.28816608801054,3.0012992795481437,444.3024221212612
B-1916,p-acetoxyacetanilide,"InChI=1S/C10H11NO3/c1-7(12)11-9-3-5-10(6-4-9)14-8(2)13/h3-6H,1-2H3,(H,11,12)",UJAOSPFULOFZRR-UHFFFAOYSA-N,CC(=O)Nc1ccc(OC(C)=O)cc1,-1.9076,0.0,1,G1,193.20199999999997,1.5702999999999998,52.054700000000025,14.0,3.0,1.0,4.0,2.0,74.0,1.0,0.0,0.0,1.0,55.4,81.87762319028586,2.679983362198753,307.8896728870035
B-1918,"butanoic acid, 4-nitrophenyl ester","InChI=1S/C10H11NO4/c1-2-3-10(12)15-9-6-4-8(5-7-9)11(13)14/h4-7H,2-3H2,1H3",DVDUMIQZEUTAGK-UHFFFAOYSA-N,CCCC(=O)Oc1ccc([N+](=O)[O-])cc1,-3.9404,0.0,1,G1,209.20099999999996,2.3003,53.63940000000002,15.0,4.0,0.0,5.0,4.0,80.0,1.0,0.0,0.0,1.0,69.44,86.81921462913384,2.6416397623371424,358.19006718030624
B-1923,"3,5-bis(tert-butyl)phenol methylcarbamate","InChI=1S/C16H25NO2/c1-15(2,3)11-8-12(16(4,5)6)10-13(9-11)19-14(18)17-7/h8-10H,1-7H3,(H,17,18)",SLZWBCGZQRRUNG-UHFFFAOYSA-N,CNC(=O)Oc1cc(C(C)(C)C)cc(C(C)(C)C)c1,-4.2445,0.0,1,G1,263.381,3.999800000000003,78.92570000000005,19.0,2.0,1.0,3.0,1.0,106.0,1.0,0.0,0.0,1.0,38.33,115.90575377662172,3.286723187669047,432.36776915934104
B-1924,"1,4-dichloro-2,5-dimethoxybenzene","InChI=1S/C8H8Cl2O2/c1-11-7-3-6(10)8(12-2)4-5(7)9/h3-4H,1-2H3",PFIADAMVCJPXSF-UHFFFAOYSA-N,COc1cc(Cl)c(OC)cc1Cl,-4.413,0.0,1,G1,207.056,3.010600000000002,49.566000000000024,12.0,2.0,0.0,4.0,2.0,66.0,1.0,0.0,0.0,1.0,18.46,80.99491026106729,3.164874105084725,256.88150377072884
B-1931,"4,5-dichloroveratrole","InChI=1S/C8H8Cl2O2/c1-11-7-3-5(9)6(10)4-8(7)12-2/h3-4H,1-2H3",RJYXLZQZBLGBOM-UHFFFAOYSA-N,COc1cc(Cl)c(Cl)cc1OC,-3.4588,0.0,1,G1,207.056,3.010600000000002,49.566000000000024,12.0,2.0,0.0,4.0,2.0,66.0,1.0,0.0,0.0,1.0,18.46,80.99491026106728,3.190438801224836,257.63150377072884
B-1940,m-chloroanisole,"InChI=1S/C7H7ClO/c1-9-7-4-2-3-6(8)5-7/h2-5H,1H3",YUKILTJWFRTXGB-UHFFFAOYSA-N,COc1cccc(Cl)c1,-2.783,0.0,1,G1,142.58499999999998,2.3486,38.00400000000001,9.0,1.0,0.0,2.0,1.0,48.0,1.0,0.0,0.0,1.0,9.23,59.213156690282126,2.9368661023365914,197.86256853719752
B-1944,"phosphonic acid, phenyl, di-2-propenyl ester","InChI=1S/C12H15O3P/c1-3-10-14-16(13,15-11-4-2)12-8-6-5-7-9-12/h3-9H,1-2,10-11H2",YSRMRWIQPVDQBV-UHFFFAOYSA-N,C=CCOP(=O)(OCC=C)c1ccccc1,-2.8999,0.0,1,G1,238.223,2.9102000000000015,65.98050000000003,16.0,3.0,0.0,4.0,7.0,86.0,1.0,0.0,0.0,1.0,35.53,95.93188061686972,2.894366273611782,370.5101632496787
B-1947,"benzaldehyde, 3-bromo-4-hydroxy-","InChI=1S/C7H5BrO2/c8-6-3-5(4-9)1-2-7(6)10/h1-4,10H",UOTMHAOCAJROQF-UHFFFAOYSA-N,O=Cc1ccc(O)c(Br)c1,-2.1794,0.0,1,G1,201.019,1.9672,41.19430000000001,10.0,2.0,1.0,3.0,1.0,52.0,1.0,0.0,0.0,1.0,37.3,66.61964869177471,3.158901732156222,257.7830614243171
B-1949,"2,3-dichlorophenoxyacetic acid","InChI=1S/C8H6Cl2O3/c9-5-2-1-3-6(8(5)10)13-4-7(11)12/h1-3H,4H2,(H,11,12)",RBJIGQRZLITQJG-UHFFFAOYSA-N,O=C(O)COc1cccc(Cl)c1Cl,-2.8097,0.0,1,G1,221.039,2.4568000000000003,49.59280000000002,13.0,2.0,1.0,5.0,3.0,70.0,1.0,0.0,0.0,1.0,46.53,84.83712088380017,2.7691156964614927,325.16521978178946
B-1951,"thiocyanic acid, 4-aminophenyl ester","InChI=1S/C7H6N2S/c8-5-10-7-3-1-6(9)2-4-7/h1-4H,9H2",NJYFRQQXXXRJHK-UHFFFAOYSA-N,N#CSc1ccc(N)cc1,-2.6015,0.0,1,G1,150.20600000000002,1.84198,42.32440000000001,10.0,3.0,1.0,3.0,1.0,50.0,1.0,0.0,0.0,1.0,49.81,63.651925637740234,2.8143225241794605,247.30377126902428
B-1955,4-formyl-2-nitrophenol,"InChI=1S/C7H5NO4/c9-4-5-1-2-7(10)6(3-5)8(11)12/h1-4,10H",YTHJCZRFJGXPTL-UHFFFAOYSA-N,O=Cc1ccc(O)c([N+](=O)[O-])c1,-2.9512,0.0,1,G1,167.11999999999998,1.1129,40.14870000000001,12.0,4.0,1.0,5.0,2.0,62.0,1.0,0.0,0.0,1.0,80.44,67.40507680863314,3.2541929918421286,334.1783027025974
B-1974,"benzenebutanoic acid, 4-methoxy-¥-oxo-","InChI=1S/C11H12O4/c1-15-9-4-2-8(3-5-9)10(12)6-7-11(13)14/h2-5H,6-7H2,1H3,(H,13,14)",OMTDIBZSUZNVJK-UHFFFAOYSA-N,COc1ccc(C(=O)CCC(=O)O)cc1,-1.0632,0.0,1,G1,208.2129999999999,1.7427,54.19430000000002,15.0,3.0,1.0,4.0,5.0,80.0,1.0,0.0,0.0,1.0,63.6,87.48693687327045,2.616933050569206,353.3556003241696
B-1980,"2,3-dichloronitrobenzene",InChI=1S/C6H3Cl2NO2/c7-4-2-1-3-5(6(4)8)9(10)11/h1-3H,CMVQZRLQEOAYSW-UHFFFAOYSA-N,O=[N+]([O-])c1cccc(Cl)c1Cl,-3.4881,0.0147864859000002,2,G3,192.001,2.901600000000001,43.11640000000001,11.0,2.0,0.0,5.0,1.0,58.0,1.0,0.0,0.0,1.0,43.14,72.6909112957601,3.2735808215375433,300.6337992264624
B-1987,2-(p-chlorophenoxy)propionic acid,"InChI=1S/C9H9ClO3/c1-6(9(11)12)13-8-4-2-7(10)3-5-8/h2-6H,1H3,(H,11,12)",DKHJWWRYTONYHB-UHFFFAOYSA-N,CC(Oc1ccc(Cl)cc1)C(=O)O,-2.1351,0.0,1,G1,200.621,2.1918999999999995,49.17780000000002,13.0,2.0,1.0,4.0,3.0,70.0,1.0,0.0,0.0,1.0,46.53,80.89879677131513,2.641763904889644,294.23305328030176
B-1994,"tyrosine, 3,5-dichloro-","InChI=1S/C9H9Cl2NO3/c10-5-1-4(2-6(11)8(5)13)3-7(12)9(14)15/h1-2,7,13H,3,12H2,(H,14,15)/t7-/m0/s1",MPHURJQUHZHALJ-ZETCQYMHSA-N,N[C@@H](Cc1cc(Cl)c(O)c(Cl)c1)C(=O)O,-0.7959999999999999,0.0,1,G1,250.081,1.6533999999999998,57.44200000000001,15.0,3.0,3.0,6.0,3.0,82.0,1.0,0.0,0.0,1.0,83.55000000000001,96.22264221789864,2.9237270307423464,371.9390010832792
B-2016,4-ethylacetanilide,"InChI=1S/C10H13NO/c1-3-9-4-6-10(7-5-9)11-8(2)12/h4-7H,3H2,1-2H3,(H,11,12)",HOPWGOFWAPWHDS-UHFFFAOYSA-N,CCc1ccc(NC(C)=O)cc1,-2.1453,0.0,1,G1,163.22,2.2074,50.12370000000003,12.0,1.0,1.0,2.0,2.0,64.0,1.0,0.0,0.0,1.0,29.1,72.60255586073521,2.7091478243736495,263.6719978261822
B-2024,"1,3-benzenedisulfonamide","InChI=1S/C6H8N2O4S2/c7-13(9,10)5-2-1-3-6(4-5)14(8,11)12/h1-4H,(H2,7,9,10)(H2,8,11,12)",HUYYFHGIHVULSU-UHFFFAOYSA-N,NS(=O)(=O)c1cccc(S(N)(=O)=O)c1,-2.1693,0.0,1,G1,236.27399999999997,-1.0185999999999995,49.18840000000001,14.0,4.0,2.0,8.0,2.0,78.0,1.0,0.0,0.0,1.0,120.32,81.63273629835255,3.436614784321693,499.69916585523896
B-2029,parathion-amino,"InChI=1S/C10H16NO3PS/c1-3-12-15(16,13-4-2)14-10-7-5-9(11)6-8-10/h5-8H,3-4,11H2,1-2H3",XIZOTXGJXSTQDI-UHFFFAOYSA-N,CCOP(=S)(OCC)Oc1ccc(N)cc1,-2.826,0.0,1,G1,261.28299999999996,2.945100000000001,69.01940000000002,16.0,5.0,1.0,6.0,6.0,90.0,1.0,0.0,0.0,1.0,53.71,100.95162606582974,2.748340736579641,358.8318207440149
B-2045,"benzoic acid, 3-chloro-4-hydroxy-, methyl ester","InChI=1S/C8H7ClO3/c1-12-8(11)5-2-3-7(10)6(9)4-5/h2-4,10H,1H3",ZSBIMTDWIGWJPW-UHFFFAOYSA-N,COC(=O)c1ccc(O)c(Cl)c1,-2.873,0.0,1,G1,186.594,1.8322,44.45630000000002,12.0,3.0,1.0,4.0,1.0,64.0,1.0,0.0,0.0,1.0,46.53,74.5338546569185,3.0455637915397915,309.1713244639388
B-2049,"2,3,6-trichlorophenoxyacetic acid","InChI=1S/C8H5Cl3O3/c9-4-1-2-5(10)8(7(4)11)14-3-6(12)13/h1-2H,3H2,(H,12,13)",GQOHYQAHKDLXCV-UHFFFAOYSA-N,O=C(O)COc1c(Cl)ccc(Cl)c1Cl,-2.6198,0.0,1,G1,255.484,3.1102000000000007,54.602800000000016,14.0,2.0,1.0,6.0,3.0,76.0,1.0,0.0,0.0,1.0,46.53,95.14038711068184,2.9450227685135126,365.0942913293867
B-2050,"ethanone, 2-methoxy-1-phenyl-","InChI=1S/C9H10O2/c1-11-7-9(10)8-5-3-2-4-6-8/h2-6H,7H2,1H3",YRNDGUSDBCARGC-UHFFFAOYSA-N,COCC(=O)c1ccccc1,-0.7616,0.0,1,G1,150.177,1.5157,42.64850000000003,11.0,2.0,0.0,2.0,3.0,58.0,1.0,0.0,0.0,1.0,26.3,65.80129679223742,2.6930079504145,228.57786591623355
B-2059,"propanoic acid, 2-methyl-, 4-nitrophenyl ester","InChI=1S/C10H11NO4/c1-7(2)10(12)15-9-5-3-8(4-6-9)11(13)14/h3-7H,1-2H3",AIKAOGTVMFOQKJ-UHFFFAOYSA-N,CC(C)C(=O)Oc1ccc([N+](=O)[O-])cc1,-3.9588,0.0,1,G1,209.20099999999996,2.1562,53.56940000000002,15.0,4.0,0.0,5.0,3.0,80.0,1.0,0.0,0.0,1.0,69.44,86.81921462913384,2.727326259883217,369.5137076538769
B-2066,"1,3-benzenedicarboxylic acid, 4-nitro-","InChI=1S/C8H5NO6/c10-7(11)4-1-2-6(9(14)15)5(3-4)8(12)13/h1-3H,(H,10,11)(H,12,13)",OCJFXVHDIVAONP-UHFFFAOYSA-N,O=C(O)c1ccc([N+](=O)[O-])c(C(=O)O)c1,-1.3391,0.0,1,G1,211.12899999999996,0.9912,47.01499999999999,15.0,4.0,2.0,7.0,3.0,78.0,1.0,0.0,0.0,1.0,117.74,82.72577477526953,3.3963489782409875,452.4451582999609
B-2072,"benzenemethanol, 2-hydroxy-5-methyl-","InChI=1S/C8H10O2/c1-6-2-3-8(10)7(4-6)5-9/h2-4,9-10H,5H2,1H3",ZUVDVLYXIZFDRM-UHFFFAOYSA-N,Cc1ccc(O)c(CO)c1,-0.3143,0.0,1,G1,138.166,1.1929199999999998,38.7666,10.0,2.0,2.0,2.0,1.0,54.0,1.0,0.0,0.0,1.0,40.46,59.749754852682194,3.0906836464581975,230.69924244622516
B-2092,"phosphonic diamide, p-phenyl-","InChI=1S/C6H9N2OP/c7-10(8,9)6-4-2-1-3-5-6/h1-5H,(H4,7,8,9)",SIZHJVYZJFWGHF-UHFFFAOYSA-N,NP(N)(=O)c1ccccc1,-1.1482,0.0,1,G1,156.125,0.4223999999999995,42.05730000000001,10.0,1.0,2.0,4.0,1.0,54.0,1.0,0.0,0.0,1.0,69.11,59.513203165131834,3.087636787033165,253.71014322559097
B-2093,"1,3-propanediamine, n-phenyl-","InChI=1S/C9H14N2/c10-7-4-8-11-9-5-2-1-3-6-9/h1-3,5-6,11H,4,7-8,10H2",DOSWHECVUKBMCG-UHFFFAOYSA-N,NCCCNc1ccccc1,-1.6543,0.0,1,G1,150.22499999999997,1.4472999999999998,48.603100000000026,11.0,2.0,2.0,2.0,4.0,60.0,1.0,0.0,0.0,1.0,38.05,67.41598234330755,2.2758012873675093,184.01403827281283
B-2094,nitralin,"InChI=1S/C13H19N3O6S/c1-4-6-14(7-5-2)13-11(15(17)18)8-10(23(3,21)22)9-12(13)16(19)20/h8-9H,4-7H2,1-3H3",UMKANAFDOQQUKE-UHFFFAOYSA-N,CCCN(CCC)c1c([N+](=O)[O-])cc(S(C)(=O)=O)cc1[N+](=O)[O-],-5.7601,0.0,1,G1,345.3770000000001,2.5329000000000006,85.65560000000004,23.0,7.0,0.0,10.0,8.0,128.0,1.0,0.0,0.0,1.0,123.66,133.67718141726277,3.769656534349374,675.4151960929466
B-2098,3-chloro-2-nitrobenzoic acid,"InChI=1S/C7H4ClNO4/c8-5-3-1-2-4(7(10)11)6(5)9(12)13/h1-3H,(H,10,11)/p-1",VCHSXYHBMFKRBK-UHFFFAOYSA-M,O=C([O-])c1cccc(Cl)c1[N+](=O)[O-],-2.6323,0.0,1,G1,200.55699999999996,0.6116999999999999,42.436899999999994,13.0,4.0,0.0,6.0,2.0,68.0,1.0,0.0,0.0,1.0,83.26999999999998,77.70834303551482,3.427344204506423,376.7553335743196
B-2106,kasugamycin,"InChI=1S/C14H21N3O3/c1-14(2,3)16-13(19)20-11-8-6-7-10(9-11)15-12(18)17(4)5/h6-9H,1-5H3,(H,15,18)(H,16,19)",OWNAXTAAAQTBSP-UHFFFAOYSA-N,CN(C)C(=O)Nc1cccc(OC(=O)NC(C)(C)C)c1,-2.9342,0.0,1,G1,279.34,2.6670000000000007,78.06040000000004,20.0,3.0,2.0,6.0,2.0,110.0,1.0,0.0,0.0,1.0,70.67,118.6470875016837,2.687869436009675,492.682650032856
B-2111,3-methyl-2-nitrophenol,"InChI=1S/C7H7NO3/c1-5-3-2-4-6(9)7(5)8(10)11/h2-4,9H,1H3",QIORDSKCCHRSSD-UHFFFAOYSA-N,Cc1cccc(O)c1[N+](=O)[O-],-1.64,0.0,1,G1,153.137,1.60882,39.49820000000002,11.0,3.0,1.0,4.0,1.0,58.0,1.0,0.0,0.0,1.0,63.37,63.243554708589386,3.318913173486668,275.4872022742226
B-2114,"benzoic acid, 4,5-dimethoxy-2-nitro-","InChI=1S/C9H9NO6/c1-15-7-3-5(9(11)12)6(10(13)14)4-8(7)16-2/h3-4H,1-2H3,(H,11,12)/p-1",WWCMFGBGMJAJRX-UHFFFAOYSA-M,COc1cc(C(=O)[O-])c([N+](=O)[O-])cc1OC,-0.7543,0.0,1,G1,226.164,-0.0245000000000001,50.53090000000001,16.0,6.0,0.0,7.0,4.0,86.0,1.0,0.0,0.0,1.0,101.73,90.36205149644012,3.472364748554156,400.8705052495279
B-2117,"benzeneacetonitrile, .alpha.-(diethylamino)-","InChI=1S/C12H16N2/c1-3-14(4-2)12(10-13)11-8-6-5-7-9-11/h5-9,12H,3-4H2,1-2H3",MNUHBMWEFILMEW-UHFFFAOYSA-N,CCN(CC)C(C#N)c1ccccc1,-0.9738,0.0,1,G1,188.27400000000003,2.5930800000000005,57.71700000000004,14.0,2.0,0.0,2.0,4.0,74.0,1.0,0.0,0.0,1.0,27.03,85.77346915754872,2.8791512162471458,295.8478098482713
B-2126,"1,4-benzenedicarboxylic acid, 2-methoxy-","InChI=1S/C9H8O5/c1-14-7-4-5(8(10)11)2-3-6(7)9(12)13/h2-4H,1H3,(H,10,11)(H,12,13)",VQBBXLZPRXHYBO-UHFFFAOYSA-N,COc1cc(C(=O)O)ccc1C(=O)O,-1.9916,0.0,1,G1,196.158,1.0916,46.912600000000005,14.0,3.0,2.0,5.0,3.0,74.0,1.0,0.0,0.0,1.0,83.83000000000001,79.55128639667323,3.2457899763887452,382.788745587848
B-2128,"acetamide, n-(4-chloro-2-methylphenyl)-","InChI=1S/C9H10ClNO/c1-6-5-8(10)3-4-9(6)11-7(2)12/h3-5H,1-2H3,(H,11,12)",WMHHXYOPEQARIN-UHFFFAOYSA-N,CC(=O)Nc1ccc(Cl)cc1C,-2.3097,0.0,1,G1,183.638,2.606820000000001,50.49270000000002,12.0,1.0,1.0,3.0,1.0,64.0,1.0,0.0,0.0,1.0,29.1,76.54087997322026,2.93480212462999,309.39688695312145
B-2137,"phosphonic acid, 3-(nitrophenyl)-","InChI=1S/C6H6NO5P/c8-7(9)5-2-1-3-6(4-5)13(10,11)12/h1-4H,(H2,10,11,12)",OXWXINKWKITCIH-UHFFFAOYSA-N,O=[N+]([O-])c1cccc(P(=O)(O)O)c1,0.6835,0.0,1,G1,203.08999999999995,0.3977999999999998,44.77450000000002,13.0,3.0,2.0,7.0,2.0,70.0,1.0,0.0,0.0,1.0,100.67,73.13578676273664,3.2093911682575897,384.3659305256931
B-2146,"phosphonothioic  dihydrazide, p-phenyl-","InChI=1S/C6H11N4PS/c7-9-11(12,10-8)6-4-2-1-3-5-6/h1-5H,7-8H2,(H2,9,10,12)",HDCICIWMRHHDMV-UHFFFAOYSA-N,NNP(=S)(NN)c1ccccc1,-1.425,0.0,1,G1,202.22300000000004,-0.4519999999999993,55.007200000000005,12.0,3.0,4.0,6.0,3.0,66.0,1.0,0.0,0.0,1.0,76.1,76.38351700155575,3.041596645134811,280.85937643443293
B-2147,"acetic acid, (3,5-dimethylphenoxy)-","InChI=1S/C10H12O3/c1-7-3-8(2)5-9(4-7)13-6-10(11)12/h3-5H,6H2,1-2H3,(H,11,12)",NIPZZANLNKBKIS-UHFFFAOYSA-N,Cc1cc(C)cc(OCC(=O)O)c1,-2.3527,0.0,1,G1,180.203,1.76684,49.046800000000026,13.0,2.0,1.0,3.0,3.0,70.0,1.0,0.0,0.0,1.0,46.53,76.96047265883006,2.713242192766617,297.6959388329159
B-2154,"phenol, 2-methyl-5-nitro-","InChI=1S/C7H7NO3/c1-5-2-3-6(8(10)11)4-7(5)9/h2-4,9H,1H3",UMFDLIXUUJMPSI-UHFFFAOYSA-N,Cc1ccc([N+](=O)[O-])cc1O,-2.1851,0.0,1,G1,153.137,1.60882,39.49820000000002,11.0,3.0,1.0,4.0,1.0,58.0,1.0,0.0,0.0,1.0,63.37,63.243554708589386,3.1515496683060507,295.7372022742226
B-2155,"carbamothioic acid, s-[2-oxo-2-(phenylamino)ethy","InChI=1S/C9H10N2O2S/c10-9(13)14-6-8(12)11-7-4-2-1-3-5-7/h1-5H,6H2,(H2,10,13)(H,11,12)",CEINNGQDMFZTJK-UHFFFAOYSA-N,NC(=O)SCC(=O)Nc1ccccc1,-1.3228,0.0,1,G1,210.258,1.437,57.11310000000002,14.0,3.0,2.0,5.0,3.0,74.0,1.0,0.0,0.0,1.0,72.19,85.86213656876033,2.3807618619125828,326.8436560484995
B-2159,"benzenamine, 2-iodo-5-nitro-","InChI=1S/C6H5IN2O2/c7-5-2-1-4(9(10)11)3-6(5)8/h1-3H,8H2",VKQOHFHGWCXKOA-UHFFFAOYSA-N,Nc1cc([N+](=O)[O-])ccc1I,-4.4216,0.0,1,G1,264.022,1.7816,50.2258,11.0,3.0,1.0,5.0,1.0,58.0,1.0,0.0,0.0,1.0,69.16,76.68610766005311,3.1515496683060507,300.6337992264624
B-2166,"2,6-di-sec-butylphenol","InChI=1S/C14H22O/c1-5-10(3)12-8-7-9-13(14(12)15)11(4)6-2/h7-11,15H,5-6H2,1-4H3/t10-,11+",FHTGJZOULSYEOB-PHIMTYICSA-N,CC[C@@H](C)c1cccc([C@@H](C)CC)c1O,-5.0593,0.0,1,G1,206.32899999999995,4.4192000000000045,65.51880000000004,15.0,1.0,1.0,1.0,4.0,84.0,1.0,0.0,0.0,1.0,20.23,93.14517378686584,3.106332489284297,288.8647809734401
B-2169,6-phenylcaproic acid,"InChI=1S/C12H16O2/c13-12(14)10-6-2-5-9-11-7-3-1-4-8-11/h1,3-4,7-8H,2,5-6,9-10H2,(H,13,14)",JTXZPQIXIXYMDY-UHFFFAOYSA-N,O=C(O)CCCCCc1ccccc1,-2.6026,0.0,1,G1,192.25800000000004,2.874100000000001,56.24980000000003,14.0,1.0,1.0,2.0,6.0,76.0,1.0,0.0,0.0,1.0,37.3,84.57681165811641,2.075081895525038,266.91003516871797