ID,Name,InChI,InChIKey,SMILES,Solubility,SD,Occurrences,Group,MolWt,MolLogP,MolMR,HeavyAtomCount,NumHAcceptors,NumHDonors,NumHeteroatoms,NumRotatableBonds,NumValenceElectrons,NumAromaticRings,NumSaturatedRings,NumAliphaticRings,RingCount,TPSA,LabuteASA,BalabanJ,BertzCT
C-327,baclofen;  4-amino-3-(4-chlorophenyl)butanoic acid,"InChI=1S/C10H12ClNO2/c11-9-3-1-7(2-4-9)8(6-12)5-10(13)14/h1-4,8H,5-6,12H2,(H,13,14)",KPYSYYIEGFHWSV-UHFFFAOYSA-N,NCC(CC(=O)O)c1ccc(Cl)cc1,-1.7,0.0,1,G1,213.664,1.857,55.50020000000002,14.0,2.0,2.0,4.0,4.0,76.0,1.0,0.0,0.0,1.0,63.32,87.49008435321755,2.782977187746648,310.402966410215
C-328,3-isothiocyanatobenzoic acid,"InChI=1S/C8H5NO2S/c10-8(11)6-2-1-3-7(4-6)9-5-12/h1-4H,(H,10,11)",PJRBPKOOGLKPFB-UHFFFAOYSA-N,O=C(O)c1cccc(N=C=S)c1,-3.25,0.0,1,G1,179.19999999999996,2.1191,48.08730000000001,12.0,3.0,1.0,4.0,2.0,60.0,1.0,0.0,0.0,1.0,49.66,74.37114593359495,3.113793063513397,338.58042243788793
C-359,5-bromosalicylic acid,"InChI=1S/C7H5BrO3/c8-4-1-2-6(9)5(3-4)7(10)11/h1-3,9H,(H,10,11)",IEJOONSLOGAXNO-UHFFFAOYSA-N,O=C(O)c1cc(Br)ccc1O,-2.65,0.0,1,G1,217.01799999999997,1.8529,42.76610000000001,11.0,2.0,2.0,4.0,1.0,58.0,1.0,0.0,0.0,1.0,57.53,71.41388244397072,3.232208870305491,295.73720227422257
C-384,4-iodophenyl  isothiocyanate;  4-isothiocyanatoiodobenzene,InChI=1S/C7H4INS/c8-6-1-3-7(4-2-6)9-5-10/h1-4H,SNLGBRZZFRSXHA-UHFFFAOYSA-N,S=C=Nc1ccc(I)cc1,-4.05,0.0,1,G1,261.087,3.0255,53.845000000000006,10.0,2.0,0.0,3.0,1.0,50.0,1.0,0.0,0.0,1.0,12.36,78.31228608800221,2.9960277321018163,261.43952526087224
C-412,monolinuron;  3-(4-chlorophenyl)-1-methoxy-1-methylurea,"InChI=1S/C9H11ClN2O2/c1-12(14-2)9(13)11-8-5-3-7(10)4-6-8/h3-6H,1-2H3,(H,11,13)",LKJPSUCKSLORMF-UHFFFAOYSA-N,CON(C)C(=O)Nc1ccc(Cl)cc1,-2.47,0.0844409589923962,3,G5,214.652,2.365100000000001,55.24270000000003,14.0,2.0,1.0,5.0,2.0,76.0,1.0,0.0,0.0,1.0,41.57,87.3682973724085,2.604870971658759,313.0929223461078
C-415,4-chloro-3-nitrobenzoic  acid,"InChI=1S/C7H4ClNO4/c8-5-2-1-4(7(10)11)3-6(5)9(12)13/h1-3H,(H,10,11)",DFXQXFGFOLXAPO-UHFFFAOYSA-N,O=C(O)c1ccc(Cl)c([N+](=O)[O-])c1,-2.76,0.0849999999999999,2,G3,201.56499999999997,1.9464,45.0657,13.0,3.0,1.0,6.0,2.0,68.0,1.0,0.0,0.0,1.0,80.44,77.70834303551482,3.267052212361691,376.7553335743196
C-416,"4-(2,4-dichlorophenoxy)butanoic  acid;  2,4-db","InChI=1S/C10H10Cl2O3/c11-7-3-4-9(8(12)6-7)15-5-1-2-10(13)14/h3-4,6H,1-2,5H2,(H,13,14)",YIVXMZJTEQBPQO-UHFFFAOYSA-N,O=C(O)CCCOc1ccc(Cl)cc1Cl,-3.57,0.05105,2,G3,249.093,3.237000000000002,58.82680000000003,15.0,2.0,1.0,5.0,5.0,82.0,1.0,0.0,0.0,1.0,46.53,97.5670051125934,2.4046929964771686,352.5207793847902
C-422,alclofenac,"InChI=1S/C11H11ClO3/c1-2-5-15-10-4-3-8(6-9(10)12)7-11(13)14/h2-4,6H,1,5,7H2,(H,13,14)",ARHWPKZXBHOEEE-UHFFFAOYSA-N,C=CCOc1ccc(CC(=O)O)cc1Cl,-3.13,0.0,1,G1,226.659,2.531900000000001,58.48380000000002,15.0,2.0,1.0,4.0,5.0,80.0,1.0,0.0,0.0,1.0,46.53,92.93907796792408,2.7767172318985915,374.0958253198426
C-427,3-chloro-2-nitrobenzoic  acid,"InChI=1S/C7H4ClNO4/c8-5-3-1-2-4(7(10)11)6(5)9(12)13/h1-3H,(H,10,11)",VCHSXYHBMFKRBK-UHFFFAOYSA-N,O=C(O)c1cccc(Cl)c1[N+](=O)[O-],-2.63,0.0,1,G1,201.56499999999997,1.9464000000000004,45.0657,13.0,3.0,1.0,6.0,2.0,68.0,1.0,0.0,0.0,1.0,80.44,77.70834303551482,3.427344204506423,376.7553335743196
C-431,"dicamba;  2-methoxy-3,6-dichlorobenzoic acid","InChI=1S/C8H6Cl2O3/c1-13-7-5(10)3-2-4(9)6(7)8(11)12/h2-3H,1H3,(H,11,12)",IWEDIXLBFLAXBO-UHFFFAOYSA-N,COc1c(Cl)ccc(Cl)c1C(=O)O,-1.7,0.1375499999999999,2,G3,221.039,2.7002000000000006,49.973300000000016,13.0,2.0,1.0,5.0,2.0,70.0,1.0,0.0,0.0,1.0,46.53,84.83712088380017,3.433209197937794,349.4875302332068
C-435,barban;  (3-chlorophenyl)carbamic acid 4-chloro-2-butynyl ester,"InChI=1S/C11H9Cl2NO2/c12-6-1-2-7-16-11(15)14-10-5-3-4-9(13)8-10/h3-5,8H,6-7H2,(H,14,15)",MCOQHIWZJUDQIC-UHFFFAOYSA-N,O=C(Nc1cccc(Cl)c1)OCC#CCCl,-4.24,0.0651999999999999,2,G3,258.10400000000004,3.130700000000001,64.91870000000002,16.0,2.0,1.0,5.0,2.0,84.0,1.0,0.0,0.0,1.0,38.33,103.68680105026132,2.3963098098746016,423.4830061079114
C-442,"chlorfenac; 2,3,6-trichlorophenylacetic  acid","InChI=1S/C8H5Cl3O2/c9-5-1-2-6(10)8(11)4(5)3-7(12)13/h1-2H,3H2,(H,12,13)",QZXCCPZJCKEPSA-UHFFFAOYSA-N,O=C(O)Cc1c(Cl)ccc(Cl)c1Cl,-3.08,0.0,1,G1,239.485,3.273900000000001,52.81180000000001,13.0,1.0,1.0,5.0,2.0,70.0,1.0,0.0,0.0,1.0,37.3,90.02684188117496,3.1708680052130664,349.4875302332068
C-492,"2,4,5-trichlorophenoxyacetic  acid","InChI=1S/C8H5Cl3O3/c9-4-1-6(11)7(2-5(4)10)14-3-8(12)13/h1-2H,3H2,(H,12,13)",SMYMJHWAQXWPDB-UHFFFAOYSA-N,O=C(O)COc1cc(Cl)c(Cl)cc1Cl,-2.98,0.00835,2,G3,255.484,3.1102000000000007,54.602800000000016,14.0,2.0,1.0,6.0,3.0,76.0,1.0,0.0,0.0,1.0,46.53,95.14038711068184,2.866629468975875,365.0942913293867
C-494,"2,3,4-trichlorophenoxyacetic  acid","InChI=1S/C8H5Cl3O3/c9-4-1-2-5(8(11)7(4)10)14-3-6(12)13/h1-2H,3H2,(H,12,13)",QMSFHWZMMPPKIR-UHFFFAOYSA-N,O=C(O)COc1ccc(Cl)c(Cl)c1Cl,-3.1,0.0,1,G1,255.484,3.1102000000000007,54.602800000000016,14.0,2.0,1.0,6.0,3.0,76.0,1.0,0.0,0.0,1.0,46.53,95.14038711068186,2.8834336520823234,365.0942913293867
C-523,sulfacetamide;  n1-(acetyl)sulfanilamide,"InChI=1S/C8H10N2O3S/c1-6(11)10-14(12,13)8-4-2-7(9)3-5-8/h2-5H,9H2,1H3,(H,10,11)",SKIVFJLNDNKQPD-UHFFFAOYSA-N,CC(=O)NS(=O)(=O)c1ccc(N)cc1,-1.41,0.1177907749641994,3,G5,214.246,0.0935999999999998,51.85690000000002,14.0,4.0,2.0,6.0,2.0,76.0,1.0,0.0,0.0,1.0,89.26,81.97333822136979,3.047486126365013,436.159125541551
C-554,metoclopramide,"InChI=1S/C14H22ClN3O2/c1-4-18(5-2)7-6-17-14(19)10-8-11(15)12(16)9-13(10)20-3/h8-9H,4-7,16H2,1-3H3,(H,17,19)",TTWJBBZEZQICBI-UHFFFAOYSA-N,CCN(CC)CCNC(=O)c1cc(Cl)c(N)cc1OC,-3.18,0.1949999999999998,2,G3,299.802,2.0023999999999997,82.53760000000004,20.0,4.0,2.0,6.0,7.0,112.0,1.0,0.0,0.0,1.0,67.59,124.57886014192626,2.6993698551050787,461.97739235477394
C-556,melphalan,"InChI=1S/C13H18Cl2N2O2/c14-5-7-17(8-6-15)11-3-1-10(2-4-11)9-12(16)13(18)19/h1-4,12H,5-9,16H2,(H,18,19)",SGDBTWWWUNNDEQ-UHFFFAOYSA-N,NC(Cc1ccc(N(CCCl)CCCl)cc1)C(=O)O,-3.49,0.0,1,G1,305.2049999999999,1.925,79.41020000000003,19.0,3.0,2.0,6.0,8.0,106.0,1.0,0.0,0.0,1.0,66.56,122.64801059349244,2.7067949179355035,392.1346196779266
C-557,asulam;  n1-(methoxycarbonyl)sulfanilamide;  asulox,"InChI=1S/C8H10N2O4S/c1-14-8(11)10-15(12,13)7-4-2-6(9)3-5-7/h2-5H,9H2,1H3,(H,10,11)",VGPYEHKOIGNJKV-UHFFFAOYSA-N,COC(=O)NS(=O)(=O)c1ccc(N)cc1,-1.76,0.0484,2,G3,230.245,0.3134999999999998,53.580900000000014,15.0,5.0,2.0,7.0,2.0,82.0,1.0,0.0,0.0,1.0,98.49,87.08688345087667,2.9635761460168015,452.034942848858
C-571,methyl 2-(4-chlorophenylsulfonyl)acetate;  2-(4-chlorophenylsulfonyl)acetic acid methyl ester,"InChI=1S/C9H9ClO4S/c1-14-9(11)6-15(12,13)8-4-2-7(10)3-5-8/h2-5H,6H2,1H3",RWMPWXCERLGUAF-UHFFFAOYSA-N,COC(=O)CS(=O)(=O)c1ccc(Cl)cc1,-2.38,0.0,1,G1,248.687,1.2867,55.52080000000003,15.0,4.0,0.0,6.0,3.0,82.0,1.0,0.0,0.0,1.0,60.440000000000005,92.72996140090572,2.9635761460168015,449.5056178358772
C-576,"picric  acid;  2,4,6-trinitrophenol;","InChI=1S/C6H3N3O7/c10-6-4(8(13)14)1-3(7(11)12)2-5(6)9(15)16/h1-2,10H",OXNIZHLAWKMVMX-UHFFFAOYSA-N,O=[N+]([O-])c1cc([N+](=O)[O-])c(O)c([N+](=O)[O-])c1,-1.97,0.6434245945632548,3,G4,229.104,1.1168000000000005,48.07,16.0,7.0,1.0,10.0,3.0,84.0,1.0,0.0,0.0,1.0,149.64999999999998,86.18456403919237,3.5727545380551327,461.8906850873485
C-604,tolbutamide,"InChI=1S/C12H18N2O3S/c1-3-4-9-13-12(15)14-18(16,17)11-7-5-10(2)6-8-11/h5-8H,3-4,9H2,1-2H3,(H2,13,14,15)",JLRGJRBPOGGCBT-UHFFFAOYSA-N,CCCCNC(=O)NS(=O)(=O)c1ccc(C)cc1,-3.17,0.1122499999999999,2,G3,270.354,1.78302,69.80720000000004,18.0,3.0,2.0,6.0,5.0,100.0,1.0,0.0,0.0,1.0,75.27000000000001,107.64307816555156,2.6444911926355648,494.5587374421376
C-621,isopropyl  2-(4-chlorophenylsulfonyl)acetate; 2-(4-chlorophenylsulfonyl)acetic acid isopropyl ester,"InChI=1S/C11H13ClO4S/c1-8(2)16-11(13)7-17(14,15)10-5-3-9(12)4-6-10/h3-6,8H,7H2,1-2H3",DBCUYSCFFFBUJG-UHFFFAOYSA-N,CC(C)OC(=O)CS(=O)(=O)c1ccc(Cl)cc1,-2.41,0.0,1,G1,276.741,2.0653,64.73280000000004,17.0,4.0,0.0,6.0,4.0,94.0,1.0,0.0,0.0,1.0,60.440000000000005,105.45984562969892,2.8213893752723997,490.7076454232388
C-638,methyl 2-(4-bromobenzenesulfonyl)acetate;  2-(4-bromobenzenesulfonyl)acetic acid methyl ester,"InChI=1S/C9H9BrO4S/c1-14-9(11)6-15(12,13)8-4-2-7(10)3-5-8/h2-5H,6H2,1H3",CNEVNTZDQZVZGP-UHFFFAOYSA-N,COC(=O)CS(=O)(=O)c1ccc(Br)cc1,-2.48,0.0,1,G1,293.13800000000003,1.3958,58.21080000000003,15.0,4.0,0.0,6.0,3.0,82.0,1.0,0.0,0.0,1.0,60.440000000000005,96.29424277966538,2.9635761460168015,449.5056178358772
C-659,parathion-methyl;  methylparathion,"InChI=1S/C8H10NO5PS/c1-12-15(16,13-2)14-8-5-3-7(4-6-8)9(10)11/h3-6H,1-2H3",RLBIQVVOMOPOHC-UHFFFAOYSA-N,COP(=S)(OC)Oc1ccc([N+](=O)[O-])cc1,-3.68,0.0819999999999998,2,G3,263.211,2.490900000000001,62.027400000000014,16.0,6.0,0.0,8.0,5.0,88.0,1.0,0.0,0.0,1.0,70.83000000000001,97.5348268625236,2.83268136998952,412.94177594497535
C-731,entacapone,"InChI=1S/C14H15N3O5/c1-3-16(4-2)14(20)10(8-15)5-9-6-11(17(21)22)13(19)12(18)7-9/h5-7,18-19H,3-4H2,1-2H3/b10-5-",JRURYQJSLYLRLN-YHYXMXQVSA-N,CCN(CC)C(=O)/C(C#N)=C\c1cc(O)c(O)c([N+](=O)[O-])c1,-4.26,0.0,1,G1,305.29,1.78138,77.94400000000002,22.0,6.0,2.0,8.0,5.0,116.0,1.0,0.0,0.0,1.0,127.70000000000002,126.21671568109323,3.330991051120794,671.7912617869265
C-745,pentabromophenol,InChI=1S/C6HBr5O/c7-1-2(8)4(10)6(12)5(11)3(1)9/h12H,SVHOVVJFOWGYJO-UHFFFAOYSA-N,Oc1c(Br)c(Br)c(Br)c(Br)c1Br,-6.6,0.0,1,G1,488.593,5.204700000000001,66.60679999999999,12.0,1.0,1.0,6.0,0.0,66.0,1.0,0.0,0.0,1.0,20.23,111.56337489989976,3.603567451474547,230.20322477240757
C-748,thiamphenicol,"InChI=1S/C12H15Cl2NO5S/c1-21(19,20)8-4-2-7(3-5-8)10(17)9(6-16)15-12(18)11(13)14/h2-5,9-11,16-17H,6H2,1H3,(H,15,18)",OTVAEFIXJLOWRX-UHFFFAOYSA-N,CS(=O)(=O)c1ccc(C(O)C(CO)NC(=O)C(Cl)Cl)cc1,-2.15,0.0,1,G1,356.2270000000001,0.4043000000000002,79.02210000000002,21.0,5.0,3.0,9.0,6.0,118.0,1.0,0.0,0.0,1.0,103.70000000000002,132.1528384294704,2.9005153152498657,588.1702785757096
C-758,trifluralin,"InChI=1S/C13H16F3N3O4/c1-3-5-17(6-4-2)12-10(18(20)21)7-9(13(14,15)16)8-11(12)19(22)23/h7-8H,3-6H2,1-2H3",ZSDSQXJSNMTJDA-UHFFFAOYSA-N,CCCN(CCC)c1c([N+](=O)[O-])cc(C(F)(F)F)cc1[N+](=O)[O-],-6.05,0.2399881293360617,3,G5,335.28200000000004,4.148200000000004,77.54780000000001,23.0,5.0,0.0,10.0,7.0,128.0,1.0,0.0,0.0,1.0,89.51999999999998,129.54838924425488,3.699377936225601,563.6129198986837
C-840,prodiamine,"InChI=1S/C13H17F3N4O4/c1-3-5-18(6-4-2)11-9(19(21)22)7-8(13(14,15)16)10(17)12(11)20(23)24/h7H,3-6,17H2,1-2H3",RSVPPPHXAASNOL-UHFFFAOYSA-N,CCCN(CCC)c1c([N+](=O)[O-])cc(C(F)(F)F)c(N)c1[N+](=O)[O-],-7.07,0.18025,2,G3,350.297,3.730400000000002,81.9602,24.0,6.0,1.0,11.0,7.0,134.0,1.0,0.0,0.0,1.0,115.54,134.8882799412676,3.869113877191057,643.0844693591861
C-927,oryzalin;  surflan,"InChI=1S/C12H18N4O6S/c1-3-5-14(6-4-2)12-10(15(17)18)7-9(23(13,21)22)8-11(12)16(19)20/h7-8H,3-6H2,1-2H3,(H2,13,21,22)",UNAHYJYOSSSJHH-UHFFFAOYSA-N,CCCN(CCC)c1c([N+](=O)[O-])cc(S(N)(=O)=O)cc1[N+](=O)[O-],-5.13,0.6642698849112462,4,G4,346.3650000000001,1.7768000000000002,83.91900000000003,23.0,7.0,1.0,11.0,8.0,128.0,1.0,0.0,0.0,1.0,149.67999999999998,132.78750751050734,3.769656534349374,677.2562499222905
C-1093,4-fluorophenol,"InChI=1S/C6H5FO/c7-5-1-3-6(8)4-2-5/h1-4,8H",RHMPLDJJXGPMEX-UHFFFAOYSA-N,Oc1ccc(F)cc1,-0.21,0.0,1,G1,112.103,1.5313,28.064799999999995,8.0,1.0,1.0,2.0,0.0,42.0,1.0,0.0,0.0,1.0,20.23,46.39117227461921,3.0324555320336755,147.38833891467198
C-1103,3-chlorophenol,"InChI=1S/C6H5ClO/c7-5-2-1-3-6(8)4-5/h1-4,8H",HORNXRXVQWOLPJ-UHFFFAOYSA-N,Oc1cccc(Cl)c1,-0.71,0.0079499999999999,2,G3,128.558,2.0456,33.1168,8.0,1.0,1.0,2.0,0.0,42.0,1.0,0.0,0.0,1.0,20.23,52.52890309857465,3.077660437970554,168.38833891467198
C-1112,4-ethoxyphenol,"InChI=1S/C8H10O2/c1-2-10-8-5-3-7(9)4-6-8/h3-6,9H,2H2,1H3",LKVFCSWBKOVHAH-UHFFFAOYSA-N,CCOc1ccc(O)cc1,-1.29,0.0,1,G1,138.16599999999997,1.7908999999999995,39.27580000000001,10.0,2.0,1.0,2.0,2.0,54.0,1.0,0.0,0.0,1.0,29.46,60.06906632999306,2.693803452362809,190.91749419417292
C-1117,thiobenzamide,"InChI=1S/C7H7NS/c8-7(9)6-4-2-1-3-5-6/h1-5H,(H2,8,9)",QIOZLISABUUKJY-UHFFFAOYSA-N,NC(=S)c1ccccc1,-1.92,0.0,1,G1,137.20699999999997,1.3208000000000002,42.329400000000014,9.0,1.0,1.0,2.0,1.0,46.0,1.0,0.0,0.0,1.0,26.02,59.49501617811116,2.981454614041131,205.415952604261
C-1129,"4-chloro-3,5-dimethylphenol;  4-chloro-3,5-xylenol","InChI=1S/C8H9ClO/c1-5-3-7(10)4-6(2)8(5)9/h3-4,10H,1-2H3",OSDLLIBGSJNGJE-UHFFFAOYSA-N,Cc1cc(O)cc(C)c1Cl,-2.67,0.1943541651416917,4,G5,156.612,2.662440000000001,42.59080000000002,10.0,1.0,1.0,2.0,0.0,54.0,1.0,0.0,0.0,1.0,20.23,65.25878732736787,3.310532874722407,232.4296583765569
C-1130,n-(hydroxymethyl)benzamide,"InChI=1S/C8H9NO2/c10-6-9-8(11)7-4-2-1-3-5-7/h1-5,10H,6H2,(H,9,11)",UOUBPDZUBVJZOQ-UHFFFAOYSA-N,O=C(NCO)c1ccccc1,-0.52,0.0,1,G1,151.165,0.3662000000000001,40.99400000000002,11.0,2.0,2.0,3.0,2.0,58.0,1.0,0.0,0.0,1.0,49.33,64.66690538413799,2.6930079504145,233.1071909292143
C-1134,4-ethylbenzoic  acid,"InChI=1S/C9H10O2/c1-2-7-3-5-8(6-4-7)9(10)11/h3-6H,2H2,1H3,(H,10,11)",ZQVKTHRQIXSMGY-UHFFFAOYSA-N,CCc1ccc(C(=O)O)cc1,-2.52,0.0,1,G1,150.17699999999996,1.9472,42.77930000000002,11.0,1.0,1.0,2.0,2.0,58.0,1.0,0.0,0.0,1.0,37.3,65.48198531492656,2.9138015626758045,248.77017257091023
C-1137,4-methoxybenzamide,"InChI=1S/C8H9NO2/c1-11-7-4-2-6(3-5-7)8(9)10/h2-5H,1H3,(H2,9,10)",GUCPYIYFQVTFSI-UHFFFAOYSA-N,COc1ccc(C(N)=O)cc1,-1.72,0.0,1,G1,151.16499999999996,0.7941,41.51190000000001,11.0,2.0,1.0,3.0,2.0,58.0,1.0,0.0,0.0,1.0,52.32,64.77624537485353,2.9138015626758045,253.29949758389105
C-1139,3-methoxybenzamide,"InChI=1S/C8H9NO2/c1-11-7-4-2-3-6(5-7)8(9)10/h2-5H,1H3,(H2,9,10)",VKPLPDIMEREJJF-UHFFFAOYSA-N,COc1cccc(C(N)=O)c1,-1.72,0.0,1,G1,151.16499999999996,0.7941,41.51190000000001,11.0,2.0,1.0,3.0,2.0,58.0,1.0,0.0,0.0,1.0,52.32,64.77624537485353,3.0058892189147386,270.54949758389114
C-1146,n-(dimethylaminomethyl)benzamide,"InChI=1S/C10H14N2O/c1-12(2)8-11-10(13)9-6-4-3-5-7-9/h3-7H,8H2,1-2H3,(H,11,13)",VEROGXNNWXHGRF-UHFFFAOYSA-N,CN(C)CNC(=O)c1ccccc1,0.42,0.0,1,G1,178.235,0.9354999999999996,52.46220000000003,13.0,2.0,1.0,3.0,3.0,70.0,1.0,0.0,0.0,1.0,32.34,78.36238953093859,2.4977844401611917,269.5130516555259
C-1148,4-iodophenol,"InChI=1S/C6H5IO/c7-5-1-3-6(8)4-2-5/h1-4,8H",VSMDINRNYYEDRN-UHFFFAOYSA-N,Oc1ccc(I)cc1,-1.71,0.0,1,G1,220.009,1.9968,40.82380000000001,8.0,1.0,1.0,2.0,0.0,42.0,1.0,0.0,0.0,1.0,20.23,61.48747499273661,3.0324555320336755,147.38833891467198
C-1155,4-butylbenzoic acid,"InChI=1S/C11H14O2/c1-2-3-4-9-5-7-10(8-6-9)11(12)13/h5-8H,2-4H2,1H3,(H,12,13)",JFKUBRAOUZEZSL-UHFFFAOYSA-N,CCCCc1ccc(C(=O)O)cc1,-3.08,0.0,1,G1,178.23099999999997,2.7274000000000003,52.01330000000003,13.0,1.0,1.0,2.0,4.0,70.0,1.0,0.0,0.0,1.0,37.3,78.21186954371979,2.6404813389186934,274.64668245876646
C-1160,"xylylcarb;  3,4-xylyl methylcarbamate;  3,4-dimethylphenyl methylcarbamate","InChI=1S/C10H13NO2/c1-7-4-5-9(6-8(7)2)13-10(12)11-3/h4-6H,1-3H3,(H,11,12)",WCJYTPVNMWIZCG-UHFFFAOYSA-N,CNC(=O)Oc1ccc(C)c(C)c1,-2.49,0.1753,2,G3,179.219,2.0216399999999997,50.999700000000026,13.0,2.0,1.0,3.0,1.0,70.0,1.0,0.0,0.0,1.0,38.33,77.71610109024206,2.793568433647237,320.7008263350793
C-1179,fenobucarb,"InChI=1S/C12H17NO2/c1-4-9(2)10-7-5-6-8-11(10)15-12(14)13-3/h5-9H,4H2,1-3H3,(H,13,14)",DIRFUJHNVNOBMY-UHFFFAOYSA-N,CCC(C)c1ccccc1OC(=O)NC,-2.53,0.0164999999999999,2,G3,207.273,2.9183000000000012,60.23170000000004,15.0,2.0,1.0,3.0,3.0,82.0,1.0,0.0,0.0,1.0,38.33,90.44598531903532,2.905749557549536,336.1489335759842
C-1184,benzadox;  2-(benzoylaminooxy)acetic  acid;  n-benzoyl-o-(carboxymethyl)hydroxylamine,"InChI=1S/C9H9NO4/c11-8(12)6-14-10-9(13)7-4-2-1-3-5-7/h1-5H,6H2,(H,10,13)(H,11,12)",WDRGQGLIUAMOOC-UHFFFAOYSA-N,O=C(O)CONC(=O)c1ccccc1,-0.95,0.0,1,G1,195.17400000000004,0.4325999999999995,47.496000000000016,14.0,3.0,2.0,5.0,4.0,74.0,1.0,0.0,0.0,1.0,75.63,80.26095332756324,2.3993417942255073,322.8436560484995
C-1186,4-hydroxy-3-methoxycinnamic.acid;  ferulic.acid,"InChI=1S/C10H10O4/c1-14-9-6-7(2-4-8(9)11)3-5-10(12)13/h2-6,11H,1H3,(H,12,13)/b5-3+",KSEBMYQBYZTDHS-HWKANZROSA-N,COc1cc(/C=C/C(=O)O)ccc1O,-3.05,0.0,1,G1,194.186,1.4986,51.328600000000016,14.0,3.0,2.0,4.0,3.0,74.0,1.0,0.0,0.0,1.0,66.75999999999999,81.06510337884183,2.948507336572909,368.38478965282144
C-1201,methyl acetylsalicylate;  2-acetoxybenzoic acid methyl ester,"InChI=1S/C10H10O4/c1-7(11)14-9-6-4-3-5-8(9)10(12)13-2/h3-6H,1-2H3",ONWPLBKWMAUFGZ-UHFFFAOYSA-N,COC(=O)c1ccccc1OC(C)=O,-1.84,0.0,1,G1,194.18599999999995,1.3985,49.09050000000003,14.0,4.0,0.0,4.0,2.0,74.0,1.0,0.0,0.0,1.0,52.6,81.44130623618469,3.023672693221152,356.8945603891669
C-1219,oxprenolol,"InChI=1S/C15H23NO3/c1-4-9-18-14-7-5-6-8-15(14)19-11-13(17)10-16-12(2)3/h4-8,12-13,16-17H,1,9-11H2,2-3H3",CEMAWMOMDPGJMB-UHFFFAOYSA-N,C=CCOc1ccccc1OCC(O)CNC(C)C,-0.32,0.0,1,G1,265.35299999999995,1.9891,76.77450000000005,19.0,4.0,2.0,4.0,9.0,106.0,1.0,0.0,0.0,1.0,50.72,114.5974655117,2.449000812238064,379.4083655141889
C-1241,"(n,n-dimethyl)carbamoylmethyl  salicylate; 2-(2-hydroxybenzoyloxy)-n,n-dimethylacetamide","InChI=1S/C11H13NO4/c1-12(2)10(14)7-16-11(15)8-5-3-4-6-9(8)13/h3-6,13H,7H2,1-2H3",SWLDDKZEHUBBOY-UHFFFAOYSA-N,CN(C)C(=O)COC(=O)c1ccccc1O,-1.71,0.0,1,G1,223.228,0.6372,57.08330000000004,16.0,4.0,1.0,5.0,3.0,86.0,1.0,0.0,0.0,1.0,66.84,93.2467705434738,2.6045684568832117,400.7259654533225
C-1246,"dimethachlor;  2-chloro-n-(2,6-dimethylphenyl)-n-(2-methoxyethyl)acetamide","InChI=1S/C13H18ClNO2/c1-10-5-4-6-11(2)13(10)15(7-8-17-3)12(16)9-14/h4-6H,7-9H2,1-3H3",SCCDDNKJYDZXMM-UHFFFAOYSA-N,COCCN(C(=O)CCl)c1c(C)cccc1C,-2.09,0.0219499999999999,2,G3,255.745,2.5216400000000005,70.86500000000004,17.0,2.0,0.0,4.0,5.0,94.0,1.0,0.0,0.0,1.0,29.54,107.32416514690892,3.073310171652267,372.7558941318808
C-1249,"2-benzoyloxy-(n-ethyl,n-2-hydroxyethyl)acetamide;  n-ethyl-n-(2-hydroxyethyl)-2-(benzoyloxy)acetamide","InChI=1S/C13H17NO4/c1-2-14(8-9-15)12(16)10-18-13(17)11-6-4-3-5-7-11/h3-7,15H,2,8-10H2,1H3",IIZIPXWXNPFUOU-UHFFFAOYSA-N,CCN(CCO)C(=O)COC(=O)c1ccccc1,-1.37,0.0,1,G1,251.282,0.684199999999999,66.06430000000005,18.0,4.0,1.0,5.0,6.0,98.0,1.0,0.0,0.0,1.0,66.84,105.97665477226704,2.4515186282649086,391.2375344506235
C-1261,chlorambucil,"InChI=1S/C14H19Cl2NO2/c15-8-10-17(11-9-16)13-6-4-12(5-7-13)2-1-3-14(18)19/h4-7H,1-3,8-11H2,(H,18,19)",JCKYGMPEJWAADB-UHFFFAOYSA-N,O=C(O)CCCc1ccc(N(CCCl)CCCl)cc1,-3.4,0.0,1,G1,304.217,3.377900000000002,80.66880000000005,19.0,2.0,1.0,5.0,9.0,106.0,1.0,0.0,0.0,1.0,40.54,123.67306201087634,2.5541826860485153,375.5372835152444
C-1263,"2-benzoyloxy-n,n-diisopropylacetamide;  n,n-diisopropyl-2-benzoyloxyacetamide","InChI=1S/C15H21NO3/c1-11(2)16(12(3)4)14(17)10-19-15(18)13-8-6-5-7-9-13/h5-9,11-12H,10H2,1-4H3",ZWUAUTPCFIIFAS-UHFFFAOYSA-N,CC(C)N(C(=O)COC(=O)c1ccccc1)C(C)C,-3.34,0.0,1,G1,263.337,2.4888000000000003,73.84250000000004,19.0,3.0,0.0,4.0,5.0,104.0,1.0,0.0,0.0,1.0,46.61,113.91230524886424,2.567378228723599,418.27664409246296
C-1264,"2-benzoyloxy-n,n-di(2-hydroxyethyl)acetamide;  n,n-di(2-hydroxyethyl)-2-(benzoyloxy)acetamide","InChI=1S/C13H17NO5/c15-8-6-14(7-9-16)12(17)10-19-13(18)11-4-2-1-3-5-11/h1-5,15-16H,6-10H2",UCIUVGVKELKZSD-UHFFFAOYSA-N,O=C(OCC(=O)N(CCO)CCO)c1ccccc1,0.43,0.0,1,G1,267.28099999999995,-0.3434000000000003,67.47610000000005,19.0,5.0,2.0,6.0,7.0,104.0,1.0,0.0,0.0,1.0,87.07,110.77088852446305,2.463454822910587,400.75442024200606
C-1269,"(n,n-diethyl)carbamoylmethyl  salicylate;  n,n-diethyl-2-(salicyloyloxy)acetamide","InChI=1S/C13H17NO4/c1-3-14(4-2)12(16)9-18-13(17)10-7-5-6-8-11(10)15/h5-8,15H,3-4,9H2,1-2H3",SHQRMVJGVCBCEC-UHFFFAOYSA-N,CCN(CC)C(=O)COC(=O)c1ccccc1O,-2.56,0.0,1,G1,251.282,1.4173999999999998,66.31730000000005,18.0,4.0,1.0,5.0,5.0,98.0,1.0,0.0,0.0,1.0,66.84,105.97665477226704,2.5687808451194836,426.7543501095396
C-1273,"n1,n1,n4-trimethylsulfanilamide","InChI=1S/C9H14N2O2S/c1-10-8-4-6-9(7-5-8)14(12,13)11(2)3/h4-7,10H,1-3H3",GZPBMGVKWGJDIF-UHFFFAOYSA-N,CNc1ccc(S(=O)(=O)N(C)C)cc1,-3.08,0.0,1,G1,214.28999999999996,0.9786,56.86150000000003,14.0,3.0,1.0,5.0,3.0,78.0,1.0,0.0,0.0,1.0,49.41,84.59670120891327,3.0991995661178624,395.3250603152378