ID,Name,InChI,InChIKey,SMILES,Solubility,SD,Occurrences,Group,MolWt,MolLogP,MolMR,HeavyAtomCount,NumHAcceptors,NumHDonors,NumHeteroatoms,NumRotatableBonds,NumValenceElectrons,NumAromaticRings,NumSaturatedRings,NumAliphaticRings,RingCount,TPSA,LabuteASA,BalabanJ,BertzCT
B-1875,"pteridine, 2-methyl-","InChI=1S/C7H6N4/c1-5-10-4-6-7(11-5)9-3-2-8-6/h2-4H,1H3",BIGRRCHSUAXSEE-UHFFFAOYSA-N,Cc1ncc2nccnc2n1,-0.1191,0.1726839180571125,3,G5,146.153,0.7282199999999999,39.865000000000016,11.0,4.0,0.0,4.0,0.0,54.0,2.0,0.0,0.0,2.0,51.56,63.35660168941482,2.8289012156206956,384.8522868931488
B-1876,"pteridine, 4-methyl-","InChI=1S/C7H6N4/c1-5-6-7(11-4-10-5)9-3-2-8-6/h2-4H,1H3",WESDBLALURHRDL-UHFFFAOYSA-N,Cc1ncnc2nccnc12,-0.4658,0.1690046942148846,3,G5,146.15299999999996,0.7282199999999999,39.86500000000001,11.0,4.0,0.0,4.0,0.0,54.0,2.0,0.0,0.0,2.0,51.56,63.356601689414816,2.9131611636048604,379.6022868931488
B-2418,"4-pteridinamine, n,n-dimethyl-","InChI=1S/C8H9N5/c1-13(2)8-6-7(11-5-12-8)10-4-3-9-6/h3-5H,1-2H3",KXQWQYBKUMVBIB-UHFFFAOYSA-N,CN(C)c1ncnc2nccnc12,-1.0216,0.0,1,G1,175.19500000000002,0.4857999999999999,49.45500000000003,13.0,5.0,0.0,5.0,1.0,66.0,2.0,0.0,0.0,2.0,54.8,75.48137747401479,2.756733762067337,420.30882955700895
B-2495,"pteridine, 2-(methylthio)-","InChI=1S/C7H6N4S/c1-12-7-10-4-5-6(11-7)9-3-2-8-5/h2-4H,1H3",LNTLWEUAGAFRJR-UHFFFAOYSA-N,CSc1ncc2nccnc2n1,-1.7561,0.3019499999999999,2,G3,178.22,1.1416999999999995,46.90900000000002,12.0,5.0,0.0,5.0,1.0,60.0,2.0,0.0,0.0,2.0,51.56,73.47971171478005,2.673996462761564,403.2834383297276
B-2552,"2,4-pteridinediamine, 6,7-diethyl-","InChI=1S/C10H14N6/c1-3-5-6(4-2)14-9-7(13-5)8(11)15-10(12)16-9/h3-4H2,1-2H3,(H4,11,12,14,15,16)",BUZKILZDXOORCH-UHFFFAOYSA-N,CCc1nc2nc(N)nc(N)c2nc1CC,-3.2671,0.0,1,G1,218.264,0.7089999999999999,62.70880000000001,16.0,6.0,2.0,6.0,2.0,84.0,2.0,0.0,0.0,2.0,103.6,93.13120942663008,2.7764950080151056,536.3105594936766
B-2553,"pteridine, 2-(methylamino)-","InChI=1S/C7H7N5/c1-8-7-11-4-5-6(12-7)10-3-2-9-5/h2-4H,1H3,(H,8,10,11,12)",FCJSISFRKUULPL-UHFFFAOYSA-N,CNc1ncc2nccnc2n1,-1.7124,0.0,1,G1,161.16799999999998,0.4614999999999998,44.674700000000016,12.0,5.0,1.0,5.0,1.0,60.0,2.0,0.0,0.0,2.0,63.59,68.90646387302287,2.673996462761564,399.6737978552908
B-2638,"pteridine, 2,6,7-trimethyl-","InChI=1S/C9H10N4/c1-5-6(2)12-9-8(11-5)4-10-7(3)13-9/h4H,1-3H3",ZGWOCNDIGLJDDX-UHFFFAOYSA-N,Cc1ncc2nc(C)c(C)nc2n1,-1.1442,0.0,1,G1,174.207,1.34506,49.33900000000001,13.0,4.0,0.0,4.0,0.0,66.0,2.0,0.0,0.0,2.0,51.56,76.08648591820804,2.81148314052133,464.3665095200525
B-2736,"pteridine, 4-methoxy-","InChI=1S/C7H6N4O/c1-12-7-5-6(10-4-11-7)9-3-2-8-5/h2-4H,1H3",KCCOKUSVNPDIBJ-UHFFFAOYSA-N,COc1ncnc2nccnc12,-1.113,0.0,1,G1,162.15200000000002,0.4283999999999998,41.68000000000001,12.0,5.0,0.0,5.0,1.0,60.0,2.0,0.0,0.0,2.0,60.790000000000006,68.47014691892171,2.7909670297392646,398.0334383297276
B-2877,"2-pteridinamine, n,n-dimethyl-","InChI=1S/C8H9N5/c1-13(2)8-11-5-6-7(12-8)10-4-3-9-6/h3-5H,1-2H3",JXKUCNDDDQEMSS-UHFFFAOYSA-N,CN(C)c1ncc2nccnc2n1,0.3586,0.0,1,G1,175.195,0.4857999999999998,49.45500000000001,13.0,5.0,0.0,5.0,1.0,66.0,2.0,0.0,0.0,2.0,54.8,75.48137747401479,2.61987386972831,425.55882955700895
B-3326,"2-pteridinol, 6,7-diethyl-","InChI=1S/C10H12N4O/c1-3-6-7(4-2)13-9-8(12-6)5-11-10(15)14-9/h5H,3-4H2,1-2H3,(H,11,13,14,15)",GSGKUGGVXZDGBA-UHFFFAOYSA-N,CCc1nc2cnc(O)nc2nc1CC,-2.2644,0.0177999999999998,2,G3,204.23299999999995,1.2501999999999998,55.54880000000003,15.0,5.0,1.0,5.0,2.0,78.0,2.0,0.0,0.0,2.0,71.79,87.24566178480066,2.6938365402816773,497.9915248566571
B-3389,"pteridine, 2-methoxy-","InChI=1S/C7H6N4O/c1-12-7-10-4-5-6(11-7)9-3-2-8-5/h2-4H,1H3",NIKKSNUDXYPTRO-UHFFFAOYSA-N,COc1ncc2nccnc2n1,-1.113,0.0,1,G1,162.152,0.4283999999999998,41.68000000000001,12.0,5.0,0.0,5.0,1.0,60.0,2.0,0.0,0.0,2.0,60.790000000000006,68.4701469189217,2.673996462761564,403.2834383297276
B-3394,"4-pteridinol, 6,7-diethyl-","InChI=1S/C10H12N4O/c1-3-6-7(4-2)14-9-8(13-6)10(15)12-5-11-9/h5H,3-4H2,1-2H3,(H,11,12,14,15)",WIUUIGUJULBTKD-UHFFFAOYSA-N,CCc1nc2ncnc(O)c2nc1CC,-1.9122,0.0,1,G1,204.233,1.2501999999999998,55.54880000000003,15.0,5.0,1.0,5.0,2.0,78.0,2.0,0.0,0.0,2.0,71.79,87.24566178480066,2.751964000699383,497.9915248566571
C-307,pteridine,InChI=1S/C6H4N4/c1-2-9-6-5(8-1)3-7-4-10-6/h1-4H,CPNGPNLZQNNVQM-UHFFFAOYSA-N,c1cnc2ncncc2n1,0.02,0.0071499999999999,2,G3,132.126,0.4197999999999998,35.128,10.0,4.0,0.0,4.0,0.0,48.0,2.0,0.0,0.0,2.0,51.56,56.99165957501821,2.8880516016579914,280.72468835360144
C-1758,7-methylpteridine,"InChI=1S/C7H6N4/c1-5-2-9-6-3-8-4-10-7(6)11-5/h2-4H,1H3",KOCYTWBTXZOUFS-UHFFFAOYSA-N,Cc1cnc2cncnc2n1,-0.01,0.4145870261142071,3,G5,146.153,0.7282199999999999,39.865000000000016,11.0,4.0,0.0,4.0,0.0,54.0,2.0,0.0,0.0,2.0,51.56,63.35660168941482,2.8289012156206965,384.8522868931488
C-1772,7-aminopteridine,"InChI=1S/C6H5N5/c7-5-2-9-4-1-8-3-10-6(4)11-5/h1-3H,(H2,7,8,10,11)",KJVGXOHRFWZQJB-UHFFFAOYSA-N,Nc1cnc2cncnc2n1,-2.31,0.0,1,G1,147.141,0.0019999999999998,39.540400000000005,11.0,5.0,1.0,5.0,0.0,54.0,2.0,0.0,0.0,2.0,77.58,62.33155027203094,2.8289012156206965,385.3843558687883
C-1773,6-aminopteridine,"InChI=1S/C6H5N5/c7-5-2-9-6-4(11-5)1-8-3-10-6/h1-3H,(H2,7,11)",YJYIDNNTUMEKSG-UHFFFAOYSA-N,Nc1cnc2ncncc2n1,-2.34,0.0,1,G1,147.141,0.002,39.540400000000005,11.0,5.0,1.0,5.0,0.0,54.0,2.0,0.0,0.0,2.0,77.58,62.33155027203094,2.8289012156206965,385.3843558687883
C-1783,4-aminopteridine,"InChI=1S/C6H5N5/c7-5-4-6(11-3-10-5)9-2-1-8-4/h1-3H,(H2,7,9,10,11)",VFATYAVSACUHHG-UHFFFAOYSA-N,Nc1ncnc2nccnc12,-2.31,0.0,1,G1,147.141,0.0019999999999998,39.540400000000005,11.0,5.0,1.0,5.0,0.0,54.0,2.0,0.0,0.0,2.0,77.58,62.33155027203093,2.91316116360486,380.1343558687883
C-1823,2-chloropteridine,InChI=1S/C6H3ClN4/c7-6-10-3-4-5(11-6)9-2-1-8-4/h1-3H,JISQBJRFTCXDEO-UHFFFAOYSA-N,Clc1ncc2nccnc2n1,-0.71,0.0055999999999999,2,G3,166.57100000000003,1.0731999999999997,40.138000000000005,11.0,4.0,0.0,5.0,0.0,54.0,2.0,0.0,0.0,2.0,51.56,67.29492580189988,2.8289012156206965,388.9939963432251
C-1835,6-methoxypteridine,"InChI=1S/C7H6N4O/c1-12-6-3-9-7-5(11-6)2-8-4-10-7/h2-4H,1H3",AWIJPALBOQNRBS-UHFFFAOYSA-N,COc1cnc2ncncc2n1,-1.14,0.1149999999999999,2,G3,162.15200000000002,0.4283999999999998,41.680000000000014,12.0,5.0,0.0,5.0,1.0,60.0,2.0,0.0,0.0,2.0,60.790000000000006,68.47014691892171,2.673996462761564,403.2834383297276
C-1836,7-methoxypteridine,"InChI=1S/C7H6N4O/c1-12-6-3-9-5-2-8-4-10-7(5)11-6/h2-4H,1H3",NMUINCUJOZFODB-UHFFFAOYSA-N,COc1cnc2cncnc2n1,-0.91,0.0,1,G1,162.152,0.4283999999999998,41.680000000000014,12.0,5.0,0.0,5.0,1.0,60.0,2.0,0.0,0.0,2.0,60.790000000000006,68.47014691892171,2.673996462761564,403.2834383297276
C-1843,"6,7-dimethylpteridine","InChI=1S/C8H8N4/c1-5-6(2)12-8-7(11-5)3-9-4-10-8/h3-4H,1-2H3",HBHGSVQQEYTFFZ-UHFFFAOYSA-N,Cc1nc2cncnc2nc1C,-0.46,0.0,1,G1,160.17999999999998,1.0366399999999998,44.60200000000002,12.0,4.0,0.0,4.0,0.0,60.0,2.0,0.0,0.0,2.0,51.56,69.72154380381143,2.839519942810836,383.827416202102
C-1870,"2,4-diaminopteridine","InChI=1S/C6H6N6/c7-4-3-5(10-2-1-9-3)12-6(8)11-4/h1-2H,(H4,7,8,10,11,12)",CITCTUNIFJOTHI-UHFFFAOYSA-N,Nc1nc(N)c2nccnc2n1,-2.69,0.0,1,G1,162.15599999999998,-0.4158000000000003,43.9528,12.0,6.0,2.0,6.0,0.0,60.0,2.0,0.0,0.0,2.0,103.6,67.67144096904363,2.892065045173516,425.3078661934481
C-1881,7-dimethylaminopteridine,"InChI=1S/C8H9N5/c1-13(2)7-4-10-6-3-9-5-11-8(6)12-7/h3-5H,1-2H3",MPTKEBUBIGZGJH-UHFFFAOYSA-N,CN(C)c1cnc2cncnc2n1,-0.09,0.0349999999999999,2,G3,175.19500000000002,0.4857999999999997,49.45500000000002,13.0,5.0,0.0,5.0,1.0,66.0,2.0,0.0,0.0,2.0,54.8,75.48137747401479,2.6198738697283104,425.55882955700895
C-1898,7-methylmercaptopteridine; pteridine-7-methyl-thiol,"InChI=1S/C7H6N4S/c1-12-6-3-9-5-2-8-4-10-7(5)11-6/h2-4H,1H3",VNPCIBFTAYHHLJ-UHFFFAOYSA-N,CSc1cnc2cncnc2n1,-1.55,0.0,1,G1,178.22000000000003,1.1417,46.90900000000001,12.0,5.0,0.0,5.0,1.0,60.0,2.0,0.0,0.0,2.0,51.56,73.47971171478007,2.673996462761564,403.2834383297276
C-1942,"6,7-diethylpteridine","InChI=1S/C10H12N4/c1-3-7-8(4-2)14-10-9(13-7)5-11-6-12-10/h5-6H,3-4H2,1-2H3",ULZKCUXGSDTDQB-UHFFFAOYSA-N,CCc1nc2cncnc2nc1CC,-0.18,0.03,2,G3,188.234,1.5445999999999998,53.88400000000002,14.0,4.0,0.0,4.0,2.0,72.0,2.0,0.0,0.0,2.0,51.56,82.45142803260464,2.687641593424723,410.31631658149047
C-1988,"2-amino-6,7-diethylpteridine","InChI=1S/C10H13N5/c1-3-6-7(4-2)14-9-8(13-6)5-12-10(11)15-9/h5H,3-4H2,1-2H3,(H2,11,12,14,15)",BTBIATCZGBXLGC-UHFFFAOYSA-N,CCc1nc2cnc(N)nc2nc1CC,-3.04,0.0,1,G1,203.249,1.1268,58.29640000000001,15.0,5.0,1.0,5.0,2.0,78.0,2.0,0.0,0.0,2.0,77.58,87.79131872961737,2.6938365402816773,494.3818843822203
C-1992,"4-amino-6,7-diethylpteridine","InChI=1S/C10H13N5/c1-3-6-7(4-2)15-10-8(14-6)9(11)12-5-13-10/h5H,3-4H2,1-2H3,(H2,11,12,13,15)",HHDDWTCUQVPOBP-UHFFFAOYSA-N,CCc1nc2ncnc(N)c2nc1CC,-2.93,0.0,1,G1,203.249,1.1267999999999998,58.29640000000001,15.0,5.0,1.0,5.0,2.0,78.0,2.0,0.0,0.0,2.0,77.58,87.79131872961736,2.751964000699383,494.3818843822203
E-765,7-Chloropteridine,InChI=1S/C6H3ClN4/c7-5-2-9-6-4(11-5)1-8-3-10-6/h1-3H,YAVYBQFUSWPIQK-UHFFFAOYSA-N,Clc1cnc2ncncc2n1,-0.87,0.12735,2,G3,166.571,1.0731999999999997,40.138000000000005,11.0,4.0,0.0,5.0,0.0,54.0,2.0,0.0,0.0,2.0,51.56,67.2949258018999,2.8289012156206965,388.9939963432251
E-768,7-Mercaptopteridine,"InChI=1S/C6H4N4S/c11-5-2-8-6-4(10-5)1-7-3-9-6/h1-3H,(H,10,11)",LDLJGAYVPOULLZ-UHFFFAOYSA-N,Sc1cnc2ncncc2n1,-2.71,0.0,1,G1,164.19299999999998,0.7084999999999999,42.38,11.0,5.0,1.0,5.0,0.0,54.0,2.0,0.0,0.0,2.0,51.56,68.14672623841994,2.8289012156206965,388.9939963432251
E-786,7-Methylpteridine,"InChI=1S/C7H6N4/c1-5-2-9-7-6(11-5)3-8-4-10-7/h2-4H,1H3",IQCHKMQERZPOIJ-UHFFFAOYSA-N,Cc1cnc2ncncc2n1,0.06,0.0,1,G1,146.153,0.7282199999999999,39.865000000000016,11.0,4.0,0.0,4.0,0.0,54.0,2.0,0.0,0.0,2.0,51.56,63.35660168941483,2.8289012156206965,384.85228689314886
E-789,2-Methylthiopteridine,"InChI=1S/C7H6N4S/c1-12-7-5-6(10-4-11-7)9-3-2-8-5/h2-4H,1H3",XKENOTHGZDIXRS-UHFFFAOYSA-N,CSc1ncnc2nccnc12,-1.76,0.3025000000000001,2,G3,178.22,1.1416999999999995,46.909000000000006,12.0,5.0,0.0,5.0,1.0,60.0,2.0,0.0,0.0,2.0,51.56,73.47971171478007,2.790967029739264,398.0334383297276
E-1216,7-Methylthiopteridine,"InChI=1S/C7H6N4S/c1-12-6-3-9-7-5(11-6)2-8-4-10-7/h2-4H,1H3",PWBADUKEIVQTGV-UHFFFAOYSA-N,CSc1cnc2ncncc2n1,-1.55,0.0,1,G1,178.22,1.1417,46.90900000000002,12.0,5.0,0.0,5.0,1.0,60.0,2.0,0.0,0.0,2.0,51.56,73.47971171478007,2.6739964627615644,403.2834383297276
B-3330,"malonamide, 2,2-dihydroxy-n,n'diphenyl-","InChI=1S/C15H14N2O4/c18-13(16-11-7-3-1-4-8-11)15(20,21)14(19)17-12-9-5-2-6-10-12/h1-10,20-21H,(H,16,18)(H,17,19)",LBGDJUYHCRTMQV-UHFFFAOYSA-N,O=C(Nc1ccccc1)C(O)(O)C(=O)Nc1ccccc1,-2.4568,0.0,1,G1,286.28700000000003,0.9446999999999998,77.31200000000003,21.0,4.0,4.0,6.0,4.0,108.0,2.0,0.0,0.0,2.0,98.66,120.5945597404465,2.0581957539999505,571.1365815063148
F-680,"2,2-dihydroxy-N,N'-bis(4-methylphenyl)propanediamide","InChI=1S/C17H18N2O4/c1-11-3-7-13(8-4-11)18-15(20)17(22,23)16(21)19-14-9-5-12(2)6-10-14/h3-10,22-23H,1-2H3,(H,18,20)(H,19,21)",YHKFVRLNISKKFY-UHFFFAOYSA-N,Cc1ccc(NC(=O)C(O)(O)C(=O)Nc2ccc(C)cc2)cc1,-3.1,0.0,1,G1,314.34100000000007,1.5615399999999997,86.78600000000002,23.0,4.0,4.0,6.0,4.0,120.0,2.0,0.0,0.0,2.0,98.66,133.32444396923967,2.059045742388285,644.878155607279
B-2163,"2h-1,4-benzoxazin-3(4h)-one","InChI=1S/C8H7NO2/c10-8-5-11-7-4-2-1-3-6(7)9-8/h1-4H,5H2,(H,9,10)",QRCGFTXRXYMJOS-UHFFFAOYSA-N,O=C1COc2ccccc2N1,-2.5716,0.0,1,G1,149.14899999999997,1.0174999999999998,40.56670000000001,11.0,2.0,1.0,3.0,0.0,56.0,1.0,0.0,1.0,2.0,38.33,63.98038570791964,2.4141310245037473,295.8984617329528
B-2606,"2h-1,4-benzoxazin-3(4h)-one, 4-methyl-","InChI=1S/C9H9NO2/c1-10-7-4-2-3-5-8(7)12-6-9(10)11/h2-5H,6H2,1H3",DBJMEBUKQVZWMD-UHFFFAOYSA-N,CN1C(=O)COc2ccccc21,-2.1445,0.0,1,G1,163.176,1.0417999999999998,45.34700000000002,12.0,2.0,0.0,3.0,0.0,62.0,1.0,0.0,1.0,2.0,29.540000000000003,70.55529930891156,2.4839707746704804,322.0595034459553
A-1076,"2,4-dihydro-1H-3,1-benzoxazine-2,4-dione","InChI=1S/C8H5NO3/c10-7-5-3-1-2-4-6(5)9-8(11)12-7/h1-4H,(H,9,11)",TXJUTRJFNRYTHH-UHFFFAOYSA-N,O=c1[nH]c2ccccc2c(=O)o1,-2.7354179060000003,0.0,1,G1,163.13199999999995,0.4813,43.10470000000001,12.0,3.0,1.0,4.0,0.0,60.0,2.0,0.0,0.0,2.0,63.07,66.46057665627525,3.0939322696636298,523.3042779533675
F-72,"3,3-diethylpiperidine-2,6-dione","InChI=1S/C9H15NO2/c1-3-9(4-2)6-5-7(11)10-8(9)12/h3-6H2,1-2H3,(H,10,11,12)",CKCSUNHTSMNWOK-UHFFFAOYSA-N,CCC1(CC)CCC(=O)NC1=O,-4.53,0.0,1,G1,169.224,1.2293999999999998,45.39870000000002,12.0,2.0,1.0,3.0,2.0,68.0,0.0,1.0,1.0,1.0,46.17,72.52586317316877,2.770404971927327,206.57407497429568
F-1010,"3,3-diethyl-1-(hydroxymethyl)piperidine-2,6-dione","InChI=1S/C10H17NO3/c1-3-10(4-2)6-5-8(13)11(7-12)9(10)14/h12H,3-7H2,1-2H3",VTHAGPOYEBHLQJ-UHFFFAOYSA-N,CCC1(CC)CCC(=O)N(CO)C1=O,-3.96,0.0,1,G1,199.24999999999997,0.8916,51.18780000000003,14.0,3.0,1.0,4.0,3.0,80.0,0.0,1.0,1.0,1.0,57.61000000000001,83.89501052635674,2.9257536519350036,245.75166580110624
B-3496,fludioxonil,"InChI=1S/C12H6F2N2O2/c13-12(14)17-10-3-1-2-8(11(10)18-12)9-6-16-5-7(9)4-15/h1-3,5-6,16H",MUJOIMFVNIBMKC-UHFFFAOYSA-N,N#Cc1c[nH]cc1-c1cccc2c1OC(F)(F)O2,-5.1395,0.03525,2,G3,248.188,2.87488,57.14670000000001,18.0,3.0,1.0,6.0,1.0,90.0,2.0,0.0,1.0,3.0,58.04,100.3724517681742,2.174022074141394,658.337288763364
B-1506,"quinoline, decahydro-","InChI=1S/C9H17N/c1-2-6-9-8(4-1)5-3-7-10-9/h8-10H,1-7H2/t8-,9+/m1/s1",POTIYWUALSJREP-BDAKNGLRSA-N,C1CC[C@@H]2NCCC[C@H]2C1,-1.0831,0.0,1,G1,139.242,1.9286,42.98270000000001,10.0,1.0,1.0,1.0,0.0,58.0,0.0,2.0,2.0,2.0,12.03,63.19698781955201,1.9253677344386608,85.29589375350572
A-5229,"(2R,3R,4R,5R)-hexane-1,2,3,4,5,6-hexol; (2S,3S,4S,5S,6R)-6-{[(2S,3S,4R,5S,6R)-2-carboxy-4,5,6-trihydroxyoxan-3-yl]oxy}-3,4,5-trihydroxyoxane-2-carboxylic acid; [(2S,3R,4R,5S,6S)-3-hydroxy-6-{[(2S,3R,4R,5S,6S)-3-hydroxy-6-{[(2S,3R,4R,5S,6S)-6-{[(2S,3R,4R,5S,6S)-3-hydroxy-6-{[(2S,3R,4R,5S,6R)-6-hydroxy-2-methyl-4,5-bis(sulfooxy)oxan-3-yl]oxy}-2-methyl-5-(sulfooxy)oxan-4-yl]oxy}-2-methyl-4,5-bis(sulfooxy)oxan-3-yl]oxy}-2-methyl-5-(sulfooxy)oxan-4-yl]oxy}-2-methyl-5-(sulfooxy)oxan-4-yl]oxidanesulfonic acid","InChI=1S/C30H52O45S8.C12H18O13.C6H14O6/c1-6-11(31)16(66-29-24(74-82(53,54)55)18(68-76(35,36)37)13(33)8(3)62-29)22(72-80(47,48)49)28(61-6)65-15-10(5)63-30(25(75-83(56,57)58)20(15)70-78(41,42)43)67-17-12(32)7(2)60-27(23(17)73-81(50,51)52)64-14-9(4)59-26(34)21(71-79(44,45)46)19(14)69-77(38,39)40;13-1-2(14)7(9(18)19)25-12(5(1)17)24-6-3(15)4(16)11(22)23-8(6)10(20)21;7-1-3(9)5(11)6(12)4(10)2-8/h6-34H,1-5H3,(H,35,36,37)(H,38,39,40)(H,41,42,43)(H,44,45,46)(H,47,48,49)(H,50,51,52)(H,53,54,55)(H,56,57,58);1-8,11-17,22H,(H,18,19)(H,20,21);3-12H,1-2H2/t6-,7-,8-,9-,10-,11+,12+,13+,14+,15+,16+,17+,18+,19+,20+,21-,22-,23-,24-,25-,26+,27-,28-,29-,30-;1-,2-,3+,4-,5-,6-,7-,8-,11+,12+;3-,4-,5-,6-/m001/s1",DFKXEMWEDROUAD-VNAFSSMTSA-N,C[C@@H]1O[C@@H](O[C@H]2[C@@H](OS(=O)(=O)O)[C@H](OS(=O)(=O)O)[C@H](O)O[C@H]2C)[C@@H](OS(=O)(=O)O)[C@H](O[C@@H]2O[C@@H](C)[C@@H](O[C@@H]3O[C@@H](C)[C@@H](O)[C@@H](O[C@@H]4O[C@@H](C)[C@@H](O)[C@@H](OS(=O)(=O)O)[C@@H]4OS(=O)(=O)O)[C@@H]3OS(=O)(=O)O)[C@@H](OS(=O)(=O)O)[C@@H]2OS(=O)(=O)O)[C@@H]1O.O=C(O)[C@H]1O[C@@H](O[C@H]2[C@H](O)[C@H](O)[C@H](O)O[C@@H]2C(=O)O)[C@@H](O)[C@@H](O)[C@@H]1O.OC[C@@H](O)[C@@H](O)[C@H](O)[C@H](O)CO,-0.5892058636,0.0,1,G1,1941.6720000000023,-16.967800000000004,350.6972000000005,120.0,54.0,26.0,72.0,33.0,708.0,0.0,7.0,7.0,7.0,1017.8400000000008,674.4536500553658,5.635566244671732e-07,4303.27345185221
C-1050,piroxicam,"InChI=1S/C15H13N3O4S/c1-18-13(15(20)17-12-8-4-5-9-16-12)14(19)10-6-2-3-7-11(10)23(18,21)22/h2-9,19H,1H3,(H,16,17,20)",QYSPLQLAKJAUJT-UHFFFAOYSA-N,CN1C(C(=O)Nc2ccccn2)=C(O)c2ccccc2S1(=O)=O,-4.5,0.2614489540150342,3,G5,331.353,1.5810000000000002,83.80630000000004,23.0,5.0,2.0,8.0,2.0,118.0,2.0,0.0,1.0,3.0,99.6,132.49870717684675,2.0932817931934427,907.3290496863176
A-4787,6'-methoxycinchonan-9-ol,"InChI=1S/C20H24N2O2/c1-3-13-12-22-9-7-14(13)10-19(22)20(23)16-6-8-21-18-5-4-15(24-2)11-17(16)18/h3-6,8,11,13-14,19-20,23H,1,7,9-10,12H2,2H3/t13-,14?,19-,20+/m0/s1",LOUPRKONTZGTKE-VOMFEXJBSA-N,C=C[C@H]1CN2CCC1C[C@H]2[C@H](O)c1ccnc2ccc(OC)cc12,-2.8121429702999996,0.0,1,G1,324.4240000000001,3.173200000000002,95.02680000000004,24.0,4.0,1.0,4.0,4.0,126.0,2.0,3.0,3.0,5.0,45.59,142.3134262032049,1.6870853618182944,760.3873010425311
I-74,quinine,"InChI=1S/C20H24N2O2/c1-3-13-12-22-9-7-14(13)10-19(22)20(23)16-6-8-21-18-5-4-15(24-2)11-17(16)18/h3-6,8,11,13-14,19-20,23H,1,7,9-10,12H2,2H3/t13?,14?,19-,20+/m0/s1",LOUPRKONTZGTKE-LFDRZELQSA-N,C=CC1CN2CCC1C[C@H]2[C@H](O)c1ccnc2ccc(OC)cc12,-2.79,0.0,1,G1,324.4240000000001,3.173200000000002,95.02680000000008,24.0,4.0,1.0,4.0,4.0,126.0,2.0,3.0,3.0,5.0,45.59,142.3134262032049,1.6870853618182942,760.3873010425311
A-2797,4-(2-{4-[2-(3-cyanophenyl)ethenyl]phenyl}ethenyl)benzonitrile,InChI=1S/C24H16N2/c25-17-23-14-11-21(12-15-23)9-6-19-4-7-20(8-5-19)10-13-22-2-1-3-24(16-22)18-26/h1-16H,XSPWINZRSAKTKX-UHFFFAOYSA-N,N#Cc1ccc(C=Cc2ccc(C=Cc3cccc(C#N)c3)cc2)cc1,-8.123728845599999,0.0,1,G1,332.40600000000006,5.7707600000000046,106.612,26.0,2.0,0.0,2.0,4.0,122.0,3.0,0.0,0.0,3.0,47.58,153.14119751657358,1.675444737646766,1025.309021168029
B-2316,8-quinazolinol,"InChI=1S/C8H6N2O/c11-7-3-1-2-6-4-9-5-10-8(6)7/h1-5,11H",LNNRQIKKDKDFRV-UHFFFAOYSA-N,Oc1cccc2cncnc12,-2.0361,0.0,1,G1,146.14899999999997,1.3353999999999997,41.20280000000002,11.0,3.0,1.0,3.0,0.0,54.0,2.0,0.0,0.0,2.0,46.010000000000005,63.34659736532121,2.9131611636048604,381.25377134755206
B-3369,"8-quinazolinol, 4-methyl-","InChI=1S/C9H8N2O/c1-6-7-3-2-4-8(12)9(7)11-5-10-6/h2-5,12H,1H3",RSHKEEMIDCYLTC-UHFFFAOYSA-N,Cc1ncnc2c(O)cccc12,-2.6025,0.0,1,G1,160.176,1.6438199999999998,45.93980000000003,12.0,3.0,1.0,3.0,0.0,60.0,2.0,0.0,0.0,2.0,46.010000000000005,69.7115394797178,2.943372852061392,384.5480911891211
B-3374,"8-quinazolinol, 4-propyl-","InChI=1S/C11H12N2O/c1-2-4-9-8-5-3-6-10(14)11(8)13-7-12-9/h3,5-7,14H,2,4H2,1H3",KUCALNGKSZWXGU-UHFFFAOYSA-N,CCCc1ncnc2c(O)cccc12,-2.9206,0.0,1,G1,188.23,2.2879000000000005,55.19780000000002,14.0,3.0,1.0,3.0,2.0,72.0,2.0,0.0,0.0,2.0,46.010000000000005,82.44142370851102,2.6808005777839266,453.9818497253538
F-62,7-prop-2-enylquinazolin-8-ol,"InChI=1S/C11H10N2O/c1-2-3-8-4-5-9-6-12-7-13-10(9)11(8)14/h2,4-7,14H,1,3H2",RSUANXGCNJOXOI-UHFFFAOYSA-N,C=CCc1ccc2cncnc2c1O,-3.62,0.0,1,G1,186.21399999999997,2.0639,55.10380000000003,14.0,3.0,1.0,3.0,2.0,70.0,2.0,0.0,0.0,2.0,46.010000000000005,81.75182067632677,2.6803956725095546,479.671267894835
C-2554,trovafloxacin,"InChI=1S/C20H15F3N4O3/c21-8-1-2-15(13(22)3-8)27-7-12(20(29)30)17(28)9-4-14(23)19(25-18(9)27)26-5-10-11(6-26)16(10)24/h1-4,7,10-11,16H,5-6,24H2,(H,29,30)",WVPSKSLAZQPAKQ-UHFFFAOYSA-N,NC1C2CN(c3nc4c(cc3F)c(=O)c(C(=O)O)cn4-c3ccc(F)cc3F)CC12,-4.53,0.0,1,G1,416.3590000000001,1.8945,101.34170000000006,30.0,6.0,2.0,10.0,3.0,154.0,3.0,2.0,2.0,5.0,101.45000000000002,166.71102821338405,1.7617670554909075,1280.507328661338
G-1023,Reposal,"InChI=1S/C14H18N2O3/c1-2-14(11(17)15-13(19)16-12(14)18)10-6-4-8-3-5-9(10)7-8/h6,8-9H,2-5,7H2,1H3,(H2,15,16,17,18,19)",YGOGAACPYALXRT-UHFFFAOYSA-N,CCC1(C2=CCC3CCC2C3)C(=O)NC(=O)NC1=O,-2.696,0.0,1,G1,262.30899999999997,1.4952,67.93640000000002,19.0,3.0,2.0,5.0,2.0,102.0,0.0,2.0,3.0,3.0,75.27000000000001,111.36069268956088,2.028581708627825,474.91954501412886
C-2330,nitrofuranylamide derivative (lee 952);  n-methyl-n-[4-(2-morpholin-4-ylethoxy)benzyl]-5-nitro-2-furamide,"InChI=1S/C19H23N3O6/c1-20(19(23)17-6-7-18(28-17)22(24)25)14-15-2-4-16(5-3-15)27-13-10-21-8-11-26-12-9-21/h2-7H,8-14H2,1H3",OWPRYUHHSFTVHN-UHFFFAOYSA-N,CN(Cc1ccc(OCCN2CCOCC2)cc1)C(=O)c1ccc([N+](=O)[O-])o1,-2.29,0.0,1,G1,389.4080000000001,2.1709999999999994,100.35590000000006,28.0,7.0,0.0,9.0,8.0,150.0,2.0,1.0,1.0,3.0,98.29,162.12273008764217,1.468764234464042,798.2552270903107