ID,Name,InChI,InChIKey,SMILES,Solubility,SD,Occurrences,Group,MolWt,MolLogP,MolMR,HeavyAtomCount,NumHAcceptors,NumHDonors,NumHeteroatoms,NumRotatableBonds,NumValenceElectrons,NumAromaticRings,NumSaturatedRings,NumAliphaticRings,RingCount,TPSA,LabuteASA,BalabanJ,BertzCT
B-3488,"2-butenamide, n-(4-hydroxyphenyl)-","InChI=1S/C10H11NO2/c1-2-3-10(13)11-8-4-6-9(12)7-5-8/h2-7,12H,1H3,(H,11,13)",DAQBOXIXALYCPJ-UHFFFAOYSA-N,CC=CC(=O)Nc1ccc(O)cc1,-2.6464,0.0,1,G1,177.203,1.9068,51.55050000000003,13.0,2.0,2.0,3.0,2.0,68.0,1.0,0.0,0.0,1.0,49.33,76.70718658074695,2.642679711394538,314.20156003747087
B-3503,"benzenesulfonamide, 4-[(4-hydroxybutyl)thio]-","InChI=1S/C10H15NO3S2/c11-16(13,14)10-5-3-9(4-6-10)15-8-2-1-7-12/h3-6,12H,1-2,7-8H2,(H2,11,13,14)",WDXVDWRSYOFRBP-UHFFFAOYSA-N,NS(=O)(=O)c1ccc(SCCCCO)cc1,-2.5141,0.0,1,G1,261.36799999999994,1.1986,64.85900000000002,16.0,4.0,2.0,6.0,6.0,90.0,1.0,0.0,0.0,1.0,80.39,99.90918194407249,2.5215958051689435,414.1952118201255
B-3504,"benzenesulfonamide, 4-(3-hydroxypropyl)-","InChI=1S/C9H13NO3S/c10-14(12,13)9-5-3-8(4-6-9)2-1-7-11/h3-6,11H,1-2,7H2,(H2,10,12,13)",NSNHWGDFYDLMBS-UHFFFAOYSA-N,NS(=O)(=O)c1ccc(CCCO)cc1,-1.032,0.0,1,G1,215.27399999999992,0.2588999999999997,53.22200000000003,14.0,3.0,2.0,5.0,4.0,78.0,1.0,0.0,0.0,1.0,80.39,83.42112980431062,2.791184180966809,383.0230231883477
B-3505,"benzenesulfonamide, 4-(4-hydroxybutyl)-","InChI=1S/C10H15NO3S/c11-15(13,14)10-6-4-9(5-7-10)3-1-2-8-12/h4-7,12H,1-3,8H2,(H2,11,13,14)",NCRQTZXHMKBWLU-UHFFFAOYSA-N,NS(=O)(=O)c1ccc(CCCCO)cc1,-1.1931,0.0,1,G1,229.30099999999993,0.6489999999999998,57.83900000000003,15.0,3.0,2.0,5.0,5.0,84.0,1.0,0.0,0.0,1.0,80.39,89.78607191870724,2.648689461432445,397.1806069025027
B-3506,"benzenesulfonamide, 4-(5-hydroxypentyl)-","InChI=1S/C11H17NO3S/c12-16(14,15)11-7-5-10(6-8-11)4-2-1-3-9-13/h5-8,13H,1-4,9H2,(H2,12,14,15)",KFRDUIZQGPSJJM-UHFFFAOYSA-N,NS(=O)(=O)c1ccc(CCCCCO)cc1,-1.9712,0.0,1,G1,243.32799999999992,1.0391,62.45600000000003,16.0,3.0,2.0,5.0,6.0,90.0,1.0,0.0,0.0,1.0,80.39,96.15101403310383,2.5215958051689435,411.3607449639889
B-3598,t-butylbenzene,"InChI=1S/C10H14/c1-10(2,3)9-7-5-4-6-8-9/h4-8H,1-3H3",YTZKOQUCBOVLHL-UHFFFAOYSA-N,CC(C)(C)c1ccccc1,-3.658,0.0,1,G1,134.22199999999998,2.9841000000000015,45.14200000000003,10.0,0.0,0.0,0.0,0.0,54.0,1.0,0.0,0.0,1.0,0.0,62.89117157708339,2.9660431785816628,191.02833704135648
B-3599,cumene,"InChI=1S/C9H12/c1-8(2)9-6-4-3-5-7-9/h3-8H,1-2H3",RWGFKTVRMDUZSP-UHFFFAOYSA-N,CC(C)c1ccccc1,-3.2924,0.0478880173608248,3,G5,120.19499999999996,2.8100000000000014,40.53100000000002,9.0,0.0,0.0,0.0,1.0,48.0,1.0,0.0,0.0,1.0,0.0,56.52622946268678,2.848234050597751,162.65300142116237
B-3606,n-propylbenzene,"InChI=1S/C9H12/c1-2-6-9-7-4-3-5-8-9/h3-5,7-8H,2,6H2,1H3",ODLMAHJVESYWTB-UHFFFAOYSA-N,CCCc1ccccc1,-3.3622,0.0,1,G1,120.19499999999996,2.639100000000001,40.43700000000001,9.0,0.0,0.0,0.0,2.0,48.0,1.0,0.0,0.0,1.0,0.0,56.526229462686786,2.61489994009295,152.9490957526401
B-3607,n-butylbenzene,"InChI=1S/C10H14/c1-2-3-7-10-8-5-4-6-9-10/h4-6,8-9H,2-3,7H2,1H3",OCKPCBLVNKHBMX-UHFFFAOYSA-N,CCCCc1ccccc1,-4.0559,0.0,1,G1,134.22199999999998,3.0292000000000012,45.05400000000003,10.0,0.0,0.0,0.0,3.0,54.0,1.0,0.0,0.0,1.0,0.0,62.89117157708339,2.4265223465879537,164.65300142116237
B-3613,o-diethylbenzene,"InChI=1S/C10H14/c1-3-9-7-5-6-8-10(9)4-2/h5-8H,3-4H2,1-2H3",KVNYFPKFSJIPBJ-UHFFFAOYSA-N,CCc1ccccc1CC,-3.2759,0.0,1,G1,134.22199999999998,2.811400000000001,45.19800000000003,10.0,0.0,0.0,0.0,2.0,54.0,1.0,0.0,0.0,1.0,0.0,62.89117157708339,2.964000093923802,177.9482132452993
B-3615,m-diethylbenzene,"InChI=1S/C10H14/c1-3-9-6-5-7-10(4-2)8-9/h5-8H,3-4H2,1-2H3",AFZZYIJIWUTJFO-UHFFFAOYSA-N,CCc1cccc(CC)c1,-3.7476,0.0,1,G1,134.22199999999998,2.811400000000001,45.19800000000003,10.0,0.0,0.0,0.0,2.0,54.0,1.0,0.0,0.0,1.0,0.0,62.891171577083384,2.8711457287957725,181.69821324529929
B-3616,"1,2,3-trimethylbenzene","InChI=1S/C9H12/c1-7-5-4-6-8(2)9(7)3/h4-6H,1-3H3",FYGHSUNMUKGBRK-UHFFFAOYSA-N,Cc1cccc(C)c1C,-3.2037,0.0,1,G1,120.195,2.611860000000001,40.65300000000001,9.0,0.0,0.0,0.0,0.0,48.0,1.0,0.0,0.0,1.0,0.0,56.52622946268678,3.2478347337367026,191.0283370413565
B-3617,ethynyl benzene,"InChI=1S/C8H6/c1-2-8-6-4-3-5-7-8/h1,3-7H",UEXCJVNBTNXOEH-UHFFFAOYSA-N,C#Cc1ccccc1,-2.3502,0.0,1,G1,102.13599999999998,1.6679000000000002,34.377,8.0,0.0,0.0,0.0,0.0,38.0,1.0,0.0,0.0,1.0,0.0,49.16051274014944,3.049388908161901,191.02833704135648
B-3618,pentylbenzene,"InChI=1S/C11H16/c1-2-3-5-8-11-9-6-4-7-10-11/h4,6-7,9-10H,2-3,5,8H2,1H3",PWATWSYOIIXYMA-UHFFFAOYSA-N,CCCCCc1ccccc1,-4.6434,0.0,1,G1,148.249,3.4193000000000024,49.67100000000004,11.0,0.0,0.0,0.0,4.0,60.0,1.0,0.0,0.0,1.0,0.0,69.25611369148,2.2758012873675093,176.4896154807834
B-3619,isobutylbenzene,"InChI=1S/C10H14/c1-9(2)8-10-6-4-3-5-7-10/h3-7,9H,8H2,1-2H3",KXUHSQYYJYAXGZ-UHFFFAOYSA-N,CC(C)Cc1ccccc1,-4.1235,0.0,1,G1,134.22199999999998,2.8851000000000013,44.98400000000003,10.0,0.0,0.0,0.0,2.0,54.0,1.0,0.0,0.0,1.0,0.0,62.89117157708339,2.5872871851548136,174.4896154807834
B-3620,1-ethyl-2-methylbenzene,"InChI=1S/C9H12/c1-3-9-7-5-4-6-8(9)2/h4-7H,3H2,1-2H3",HYFLWBNQFMXCPA-UHFFFAOYSA-N,CCc1ccccc1C,-3.2072,0.0,1,G1,120.19499999999996,2.5574200000000005,40.557000000000016,9.0,0.0,0.0,0.0,1.0,48.0,1.0,0.0,0.0,1.0,0.0,56.52622946268678,3.0065240073265844,188.98472797861993
B-3622,p-ethyltoluene,"InChI=1S/C9H12/c1-3-9-6-4-8(2)5-7-9/h4-7H,3H2,1-2H3",JRLPEMVDPFPYPJ-UHFFFAOYSA-N,CCc1ccc(C)cc1,-3.1026,0.0,1,G1,120.19499999999996,2.5574200000000005,40.557000000000016,9.0,0.0,0.0,0.0,1.0,48.0,1.0,0.0,0.0,1.0,0.0,56.52622946268678,2.881555877646136,171.73472797861993
B-3623,pentamethylbenzene,"InChI=1S/C11H16/c1-7-6-8(2)10(4)11(5)9(7)3/h6H,1-5H3",BEZDDPMMPIDMGJ-UHFFFAOYSA-N,Cc1cc(C)c(C)c(C)c1C,-3.9807,0.0096499999999999,2,G3,148.249,3.2287000000000017,50.12700000000003,11.0,0.0,0.0,0.0,0.0,60.0,1.0,0.0,0.0,1.0,0.0,69.25611369147998,3.4555464838177836,256.3300514214521
B-3624,n-hexylbenzene,"InChI=1S/C12H18/c1-2-3-4-6-9-12-10-7-5-8-11-12/h5,7-8,10-11H,2-4,6,9H2,1H3",LTEQMZWBSYACLV-UHFFFAOYSA-N,CCCCCCc1ccccc1,-5.2551,0.0225499999999998,2,G3,162.276,3.809400000000003,54.288000000000046,12.0,0.0,0.0,0.0,5.0,66.0,1.0,0.0,0.0,1.0,0.0,75.62105580587661,2.157795777203053,188.4531007474627
B-3625,octylbenzene,"InChI=1S/C14H22/c1-2-3-4-5-6-8-11-14-12-9-7-10-13-14/h7,9-10,12-13H,2-6,8,11H2,1H3",CDKDZKXSXLNROY-UHFFFAOYSA-N,CCCCCCCCc1ccccc1,-6.46,0.0,1,G1,190.33000000000004,4.589600000000004,63.522000000000055,14.0,0.0,0.0,0.0,7.0,78.0,1.0,0.0,0.0,1.0,0.0,88.35094003466985,1.992370638117442,212.7397365016785
B-3626,pentachloronitrobenzene,InChI=1S/C6Cl5NO2/c7-1-2(8)4(10)6(12(13)14)5(11)3(1)9,LKPLKUMXSAEKID-UHFFFAOYSA-N,O=[N+]([O-])c1c(Cl)c(Cl)c(Cl)c(Cl)c1Cl,-5.8269,0.0,1,G1,295.336,4.8618,58.14640000000001,14.0,2.0,0.0,8.0,1.0,76.0,1.0,0.0,0.0,1.0,43.14,103.60070997640511,3.682463305848331,390.1682702160744
B-3631,"2,4,5-trichloronitrobenzene",InChI=1S/C6H2Cl3NO2/c7-3-1-5(9)6(10(11)12)2-4(3)8/h1-2H,IBRBMZRLVYKVRF-UHFFFAOYSA-N,O=[N+]([O-])c1cc(Cl)c(Cl)cc1Cl,-3.8866,0.0,1,G1,226.446,3.5550000000000006,48.12640000000001,12.0,2.0,0.0,6.0,1.0,64.0,1.0,0.0,0.0,1.0,43.14,82.99417752264178,3.3258841466405995,339.81023714834686
B-3632,2-chlorotoluene,"InChI=1S/C7H7Cl/c1-6-4-2-3-5-7(6)8/h2-5H,1H3",IBSQPLPBRSHTTG-UHFFFAOYSA-N,Cc1ccccc1Cl,-2.5295,0.8431978430174413,4,G4,126.586,2.6484200000000007,36.189,8.0,0.0,0.0,1.0,0.0,42.0,1.0,0.0,0.0,1.0,0.0,54.09961146077524,3.134861511345448,160.49662946459569
B-3636,"1,4-dibromobenzene",InChI=1S/C6H4Br2/c7-5-1-2-6(8)4-3-5/h1-4H,SWJPEBQEEAHIGZ-UHFFFAOYSA-N,Brc1ccc(Br)cc1,-4.0717,0.0,1,G1,235.906,3.2116000000000007,41.842000000000006,8.0,0.0,0.0,2.0,0.0,42.0,1.0,0.0,0.0,1.0,0.0,65.16649833077969,3.0324555320336755,145.38833891467198
B-3637,p-bromotoluene,"InChI=1S/C7H7Br/c1-6-2-4-7(8)5-3-6/h2-5H,1H3",ZBTMRBYMKUEVEU-UHFFFAOYSA-N,Cc1ccc(Br)cc1,-3.1917,0.0,1,G1,171.03700000000003,2.7575200000000013,38.87900000000002,8.0,0.0,0.0,1.0,0.0,42.0,1.0,0.0,0.0,1.0,0.0,57.66389283953493,3.0324555320336755,143.24662946459569
B-3638,p-bromochlorobenzene,InChI=1S/C6H4BrCl/c7-5-1-3-6(8)4-2-5/h1-4H,NHDODQWIKUYWMW-UHFFFAOYSA-N,Clc1ccc(Br)cc1,-3.6298,0.0,1,G1,191.455,3.102500000000001,39.15200000000001,8.0,0.0,0.0,2.0,0.0,42.0,1.0,0.0,0.0,1.0,0.0,61.60221695202,3.0324555320336755,147.38833891467198
B-3641,m-dibromobenzene,InChI=1S/C6H4Br2/c7-5-2-1-3-6(8)4-5/h1-4H,JSRLURSZEMLAFO-UHFFFAOYSA-N,Brc1cccc(Br)c1,-3.5435,0.0,1,G1,235.906,3.2116000000000007,41.842000000000006,8.0,0.0,0.0,2.0,0.0,42.0,1.0,0.0,0.0,1.0,0.0,65.16649833077969,3.077660437970554,166.38833891467198
B-3642,m-bromochlorobenzene,InChI=1S/C6H4BrCl/c7-5-2-1-3-6(8)4-5/h1-4H,JRGGUPZKKTVKOV-UHFFFAOYSA-N,Clc1cccc(Br)c1,-3.2102,0.0,1,G1,191.455,3.102500000000001,39.15200000000001,8.0,0.0,0.0,2.0,0.0,42.0,1.0,0.0,0.0,1.0,0.0,61.60221695202,3.077660437970554,168.38833891467198
B-3646,"2,3,5,6-tetrachloronitrobenzene",InChI=1S/C6HCl4NO2/c7-2-1-3(8)5(10)6(4(2)9)11(12)13/h1H,XQTLDIFVVHJORV-UHFFFAOYSA-N,O=[N+]([O-])c1c(Cl)c(Cl)cc(Cl)c1Cl,-5.0963,0.3368499999999996,2,G3,260.891,4.2084,53.13640000000001,13.0,2.0,0.0,7.0,1.0,70.0,1.0,0.0,0.0,1.0,43.14,93.29744374952344,3.5551420285916264,353.137268020069
B-3649,p-fluorobenzyl chloride,"InChI=1S/C7H6ClF/c8-5-6-1-3-7(9)4-2-6/h1-4H,5H2",IZXWCDITFDNEBY-UHFFFAOYSA-N,Fc1ccc(CCl)cc1,-2.5442,0.0,1,G1,144.57600000000002,2.5645000000000007,35.95700000000001,9.0,0.0,0.0,2.0,1.0,48.0,1.0,0.0,0.0,1.0,0.0,58.26514686370148,2.8815558776461354,180.61256853719755
B-3652,p-difluorobenzene,InChI=1S/C6H4F2/c7-5-1-2-6(8)4-3-5/h1-4H,QUGUFLJIAFISSW-UHFFFAOYSA-N,Fc1ccc(F)cc1,-1.9709,0.0,1,G1,114.094,1.9648,26.357999999999997,8.0,0.0,0.0,2.0,0.0,42.0,1.0,0.0,0.0,1.0,0.0,45.76247392534943,3.0324555320336755,145.38833891467198
B-3654,o-dibromobenzene,InChI=1S/C6H4Br2/c7-5-3-1-2-4-6(5)8/h1-4H,WQONPSCCEXUXTQ-UHFFFAOYSA-N,Brc1ccccc1Br,-3.5,0.0,1,G1,235.906,3.2116000000000007,41.84200000000001,8.0,0.0,0.0,2.0,0.0,42.0,1.0,0.0,0.0,1.0,0.0,65.16649833077969,3.134861511345448,162.63833891467198
B-3655,m-bromotoluene,"InChI=1S/C7H7Br/c1-6-3-2-4-7(8)5-6/h2-5H,1H3",WJIFKOVZNJTSGO-UHFFFAOYSA-N,Cc1cccc(Br)c1,-3.523,0.0,1,G1,171.037,2.7575200000000013,38.87900000000001,8.0,0.0,0.0,1.0,0.0,42.0,1.0,0.0,0.0,1.0,0.0,57.66389283953493,3.077660437970554,164.24662946459569
B-3658,m-chlorofluorobenzene,InChI=1S/C6H4ClF/c7-5-2-1-3-6(8)4-5/h1-4H,VZHJIJZEOCBKRA-UHFFFAOYSA-N,Fc1cccc(Cl)c1,-2.3457,0.0,1,G1,130.549,2.4791000000000007,31.409999999999997,8.0,0.0,0.0,2.0,0.0,42.0,1.0,0.0,0.0,1.0,0.0,51.90020474930487,3.077660437970554,168.38833891467198
B-3659,"1,2,3,4-tetrachlorobenzene",InChI=1S/C6H2Cl4/c7-3-1-2-4(8)6(10)5(3)9/h1-2H,GBDZXPJXOMHESU-UHFFFAOYSA-N,Clc1ccc(Cl)c(Cl)c1Cl,-4.5619,0.1882236317669903,3,G5,215.894,4.3002,46.482000000000006,10.0,0.0,0.0,4.0,0.0,54.0,1.0,0.0,0.0,1.0,0.0,78.64446802702365,3.3421538077705124,229.16988337222983
B-3661,"2,3,4,5-tetrachloronitrobenzene",InChI=1S/C6HCl4NO2/c7-2-1-3(11(12)13)5(9)6(10)4(2)8/h1H,MTBYTWZDRVOMBR-UHFFFAOYSA-N,O=[N+]([O-])c1cc(Cl)c(Cl)c(Cl)c1Cl,-4.5531,0.0,1,G1,260.89099999999996,4.2084,53.13640000000001,13.0,2.0,0.0,7.0,1.0,70.0,1.0,0.0,0.0,1.0,43.14,93.29744374952344,3.4973813605379935,379.3872680200689
B-3662,m-bromofluorobenzene,InChI=1S/C6H4BrF/c7-5-2-1-3-6(8)4-5/h1-4H,QDFKKJYEIFBEFC-UHFFFAOYSA-N,Fc1cccc(Br)c1,-2.6656,0.0,1,G1,175.0,2.5882000000000005,34.1,8.0,0.0,0.0,2.0,0.0,42.0,1.0,0.0,0.0,1.0,0.0,55.46448612806456,3.077660437970554,168.38833891467198
B-3663,"2,3,4-trichloronitrobenzene",InChI=1S/C6H2Cl3NO2/c7-3-1-2-4(10(11)12)6(9)5(3)8/h1-2H,BGKIECJVXXHLDP-UHFFFAOYSA-N,O=[N+]([O-])c1ccc(Cl)c(Cl)c1Cl,-3.94,0.0,1,G1,226.44599999999997,3.5550000000000006,48.12640000000001,12.0,2.0,0.0,6.0,1.0,64.0,1.0,0.0,0.0,1.0,43.14,82.99417752264176,3.361225110466304,339.81023714834686
B-3664,"2,4,6-trichloronitrobenzene",InChI=1S/C6H2Cl3NO2/c7-3-1-4(8)6(10(11)12)5(9)2-3/h1-2H,AEBJDOTVYMITIA-UHFFFAOYSA-N,O=[N+]([O-])c1c(Cl)cc(Cl)cc1Cl,-4.5591,0.0,1,G1,226.446,3.5550000000000006,48.12640000000001,12.0,2.0,0.0,6.0,1.0,64.0,1.0,0.0,0.0,1.0,43.14,82.99417752264178,3.3798143363005275,316.56023714834686
B-3674,"n,n-diethylaniline","InChI=1S/C10H15N/c1-3-11(4-2)10-8-6-5-7-9-10/h5-9H,3-4H2,1-2H3",GGSUCNLOZRCGPQ-UHFFFAOYSA-N,CCN(CC)c1ccccc1,-3.0278,0.0,1,G1,149.237,2.532800000000001,50.00300000000003,11.0,1.0,0.0,1.0,3.0,60.0,1.0,0.0,0.0,1.0,3.24,68.65100524728678,2.7384989427199034,189.2875676035994
B-3677,n-methylaniline,"InChI=1S/C7H9N/c1-8-7-5-3-2-4-6-7/h2-6,8H,1H3",AFBPFSWMIHJQDM-UHFFFAOYSA-N,CNc1ccccc1,-1.2803,0.0,1,G1,107.15599999999998,1.7283,35.98870000000001,8.0,1.0,1.0,1.0,1.0,42.0,1.0,0.0,0.0,1.0,12.03,49.34620741750161,2.8320858350070908,145.73281445033504
B-3684,p-anisaldehyde,"InChI=1S/C8H8O2/c1-10-8-4-2-7(6-9)3-5-8/h2-6H,1H3",ZRSNZINYAWTAHE-UHFFFAOYSA-N,COc1ccc(C=O)cc1,-1.5016,0.1590223124194438,3,G5,136.14999999999998,1.5076999999999998,38.38150000000001,10.0,2.0,0.0,2.0,2.0,52.0,1.0,0.0,0.0,1.0,26.3,59.43635467784082,2.895351845489354,213.20412994838864
B-3686,"3,5-dichloroaniline","InChI=1S/C6H5Cl2N/c7-4-1-5(8)3-6(9)2-4/h1-3H,9H2",UQRLKWGPEVNVHT-UHFFFAOYSA-N,Nc1cc(Cl)cc(Cl)c1,-2.3153,0.0,1,G1,162.019,2.575600000000001,40.87440000000001,9.0,1.0,1.0,3.0,0.0,48.0,1.0,0.0,0.0,1.0,26.02,63.377826270273026,3.165670309917317,171.82006515716174
B-3688,pentachlorophenol,InChI=1S/C6HCl5O/c7-1-2(8)4(10)6(12)5(11)3(1)9/h12H,IZUPBVBPLAPZRR-UHFFFAOYSA-N,Oc1c(Cl)c(Cl)c(Cl)c(Cl)c1Cl,-4.2793,0.2165104513771923,3,G5,266.33799999999997,4.6592,53.15680000000001,12.0,1.0,1.0,6.0,0.0,66.0,1.0,0.0,0.0,1.0,20.23,93.74196800610132,3.603567451474547,230.20322477240757
B-3690,o-ethylphenol,"InChI=1S/C8H10O/c1-2-7-5-3-4-6-8(7)9/h3-6,9H,2H2,1H3",IXQGCWUGDFDQMF-UHFFFAOYSA-N,CCc1ccccc1O,-1.3594,0.0,1,G1,122.16699999999996,1.9545999999999997,37.48480000000001,9.0,1.0,1.0,1.0,1.0,48.0,1.0,0.0,0.0,1.0,20.23,54.95552110048619,3.0065240073265844,193.51405299160075
B-3691,2-methoxyphenol,"InChI=1S/C7H8O2/c1-9-7-5-3-2-4-6(7)8/h2-5,8H,1H3",LHGVFZTZFXWLCP-UHFFFAOYSA-N,COc1ccccc1O,-0.8221,0.5602914860635766,3,G4,124.13899999999995,1.4008,34.6588,9.0,2.0,1.0,2.0,1.0,48.0,1.0,0.0,0.0,1.0,29.46,53.704124215596465,3.0065240073265844,195.86256853719752
B-3693,"2,6-dimethoxyphenol","InChI=1S/C8H10O3/c1-10-6-4-3-5-7(11-2)8(6)9/h3-5,9H,1-2H3",KLIDCXVFHGNTTM-UHFFFAOYSA-N,COc1cccc(OC)c1O,-0.9525,0.0,1,G1,154.165,1.4093999999999998,41.21080000000002,11.0,3.0,1.0,3.0,2.0,60.0,1.0,0.0,0.0,1.0,38.69,65.18261155949995,3.0951982523070996,222.84252842272392
B-3699,"2,4,5-trichlorophenol","InChI=1S/C6H3Cl3O/c7-3-1-5(9)6(10)2-4(3)8/h1-2,10H",LHJGJYXLEPZJPM-UHFFFAOYSA-N,Oc1cc(Cl)c(Cl)cc1Cl,-2.2163,0.0,1,G1,197.448,3.3524000000000003,43.13680000000001,10.0,1.0,1.0,4.0,0.0,54.0,1.0,0.0,0.0,1.0,20.23,73.135435552338,3.2824629074535228,209.1649958700664
B-3701,"2,4-dimethylphenol","InChI=1S/C8H10O/c1-6-3-4-8(9)7(2)5-6/h3-5,9H,1-2H3",KUFFULVDNCHOFZ-UHFFFAOYSA-N,Cc1ccc(O)c(C)c1,-1.1909999999999998,0.0240174828999999,2,G3,122.167,2.0090399999999997,37.5808,9.0,1.0,1.0,1.0,0.0,48.0,1.0,0.0,0.0,1.0,20.23,54.95552110048619,3.1716780304409156,215.80766205433727
B-3702,p-bromophenol,"InChI=1S/C6H5BrO/c7-5-1-3-6(8)4-2-5/h1-4,8H",GZFGOTFRPZRKDS-UHFFFAOYSA-N,Oc1ccc(Br)cc1,-1.092,0.046,2,G3,173.009,2.1547,35.80680000000001,8.0,1.0,1.0,2.0,0.0,42.0,1.0,0.0,0.0,1.0,20.23,56.09318447733433,3.0324555320336755,147.38833891467198
B-3711,p-methoxyphenol,"InChI=1S/C7H8O2/c1-9-7-4-2-6(8)3-5-7/h2-5,8H,1H3",NWVVVBRKAWDGAB-UHFFFAOYSA-N,COc1ccc(O)cc1,-0.4919,0.08905,2,G3,124.13899999999995,1.4008,34.6588,9.0,2.0,1.0,2.0,1.0,48.0,1.0,0.0,0.0,1.0,29.46,53.704124215596465,2.881555877646136,178.61256853719752
B-3712,"2,4,6-trimethylphenol","InChI=1S/C9H12O/c1-6-4-7(2)9(10)8(3)5-6/h4-5,10H,1-3H3",BPRYUXCVCCNUFE-UHFFFAOYSA-N,Cc1cc(C)c(O)c(C)c1,-2.055,0.0,1,G1,136.194,2.3174600000000005,42.31780000000002,10.0,1.0,1.0,1.0,0.0,54.0,1.0,0.0,0.0,1.0,20.23,61.3204632148828,3.310532874722407,227.900333363576
B-3713,"2,3-dichlorophenol","InChI=1S/C6H4Cl2O/c7-4-2-1-3-5(9)6(4)8/h1-3,9H",UMPSXRYVXUPCOS-UHFFFAOYSA-N,Oc1cccc(Cl)c1Cl,-1.6559,0.1779499999999999,2,G3,163.003,2.699,38.12680000000001,9.0,1.0,1.0,3.0,0.0,48.0,1.0,0.0,0.0,1.0,20.23,62.83216932545633,3.2478347337367026,202.0478870500104
B-3716,m-bromophenol,"InChI=1S/C6H5BrO/c7-5-2-1-3-6(8)4-5/h1-4,8H",MNOJRWOWILAHAV-UHFFFAOYSA-N,Oc1cccc(Br)c1,-0.8764,0.0,1,G1,173.009,2.1547,35.80680000000001,8.0,1.0,1.0,2.0,0.0,42.0,1.0,0.0,0.0,1.0,20.23,56.09318447733433,3.077660437970554,168.38833891467198
B-3717,"3,5-dichlorophenol","InChI=1S/C6H4Cl2O/c7-4-1-5(8)3-6(9)2-4/h1-3,9H",VPOMSPZBQMDLTM-UHFFFAOYSA-N,Oc1cc(Cl)cc(Cl)c1,-1.5590000000000002,0.1095,2,G3,163.003,2.699,38.12680000000001,9.0,1.0,1.0,3.0,0.0,48.0,1.0,0.0,0.0,1.0,20.23,62.83216932545633,3.165670309917317,171.82006515716174
B-3718,"2,4-dibromophenol","InChI=1S/C6H4Br2O/c7-4-1-2-6(9)5(8)3-4/h1-3,9H",FAXWFCTVSHEODL-UHFFFAOYSA-N,Oc1ccc(Br)cc1Br,-2.1225,0.0212499999999999,2,G3,251.905,2.9172,43.506800000000005,9.0,1.0,1.0,3.0,0.0,48.0,1.0,0.0,0.0,1.0,20.23,69.9607320829757,3.171678030440915,222.29788705001033
B-3731,2-methyl-4-chlorophenoxyacetic acid,"InChI=1S/C9H9ClO3/c1-6-4-7(10)2-3-8(6)13-5-9(11)12/h2-4H,5H2,1H3,(H,11,12)",WHKUVVPPKQRRBV-UHFFFAOYSA-N,Cc1cc(Cl)ccc1OCC(=O)O,-2.503,0.1365,2,G3,200.621,2.11182,49.31980000000002,13.0,2.0,1.0,4.0,3.0,70.0,1.0,0.0,0.0,1.0,46.53,80.89879677131513,2.719441518462691,322.63589476880867
B-3742,phenoxyacetic acid,"InChI=1S/C8H8O3/c9-8(10)6-11-7-4-2-1-3-5-7/h1-5H,6H2,(H,9,10)",LCPDWSOZIOUXRV-UHFFFAOYSA-N,O=C(O)COc1ccccc1,-1.1031,0.07155,2,G3,152.149,1.15,39.57280000000002,11.0,2.0,1.0,3.0,3.0,58.0,1.0,0.0,0.0,1.0,46.53,64.23058843003683,2.453018743531937,230.35230342705088
B-3743,p-chlorophenoxyacetic acid,"InChI=1S/C8H7ClO3/c9-6-1-3-7(4-2-6)12-5-8(10)11/h1-4H,5H2,(H,10,11)",SODPIMGUZLOIPE-UHFFFAOYSA-N,O=C(O)COc1ccc(Cl)cc1,-2.29,0.0249999999999999,2,G3,186.594,1.8034,44.58280000000002,12.0,2.0,1.0,4.0,3.0,64.0,1.0,0.0,0.0,1.0,46.53,74.5338546569185,2.5298890742894535,268.1363912728923
B-3745,trans-cinnamic acid,"InChI=1S/C9H8O2/c10-9(11)7-6-8-4-2-1-3-5-8/h1-7H,(H,10,11)/b7-6+",WBYWAXJHAXSJNI-VOTSOKGWSA-N,O=C(O)/C=C/c1ccccc1,-2.4335,0.0597868621763083,3,G5,148.161,1.7844,43.11180000000002,11.0,1.0,1.0,2.0,2.0,56.0,1.0,0.0,0.0,1.0,37.3,64.79238228274231,2.7217735540687813,262.15103906059477
B-3751,"3,4-dichlorophenoxyacetic acid","InChI=1S/C8H6Cl2O3/c9-6-2-1-5(3-7(6)10)13-4-8(11)12/h1-3H,4H2,(H,11,12)",SNYRXHULAWEECU-UHFFFAOYSA-N,O=C(O)COc1ccc(Cl)c(Cl)c1,-2.6846,0.0,1,G1,221.039,2.4568000000000003,49.59280000000002,13.0,2.0,1.0,5.0,3.0,70.0,1.0,0.0,0.0,1.0,46.53,84.83712088380018,2.6819734486308224,325.16521978178946
B-3752,o-chlorophenoxyacetic acid,"InChI=1S/C8H7ClO3/c9-6-3-1-2-4-7(6)12-5-8(10)11/h1-4H,5H2,(H,10,11)",OPQYFNRLWBWCST-UHFFFAOYSA-N,O=C(O)COc1ccccc1Cl,-2.1637,0.0,1,G1,186.594,1.8034,44.58280000000002,12.0,2.0,1.0,4.0,3.0,64.0,1.0,0.0,0.0,1.0,46.53,74.53385465691849,2.6285070021470927,285.3863912728923
B-3754,"cinnamic acid, p-methoxy-","InChI=1S/C10H10O3/c1-13-9-5-2-8(3-6-9)4-7-10(11)12/h2-7H,1H3,(H,11,12)/b7-4+",AFDXODALSZRGIH-QPJJXVBHSA-N,COc1ccc(/C=C/C(=O)O)cc1,-2.3984,0.22055,2,G3,178.18699999999998,1.793,49.663800000000016,13.0,2.0,1.0,3.0,3.0,68.0,1.0,0.0,0.0,1.0,46.53,76.27086962664579,2.7469405523531787,311.4466725353074
B-3757,"3,5-dichlorobenzoic acid","InChI=1S/C7H4Cl2O2/c8-5-1-4(7(10)11)2-6(9)3-5/h1-3H,(H,10,11)",CXKCZFDUOYMOOP-UHFFFAOYSA-N,O=C(O)c1cc(Cl)cc(Cl)c1,-3.1137,0.0,1,G1,191.013,2.6916,43.42130000000001,11.0,1.0,1.0,4.0,1.0,58.0,1.0,0.0,0.0,1.0,37.3,73.3586335398967,3.1860125339283023,276.2420897763861
B-3758,"3,4-dichlorobenzoic acid","InChI=1S/C7H4Cl2O2/c8-5-2-1-4(7(10)11)3-6(5)9/h1-3H,(H,10,11)",VPHHJAOJUJHJKD-UHFFFAOYSA-N,O=C(O)c1ccc(Cl)c(Cl)c1,-3.495,0.0224999999999999,2,G3,191.013,2.6916,43.42130000000001,11.0,1.0,1.0,4.0,1.0,58.0,1.0,0.0,0.0,1.0,37.3,73.3586335398967,3.1515496683060507,296.492089776386