ID,Name,InChI,InChIKey,SMILES,Solubility,SD,Occurrences,Group,MolWt,MolLogP,MolMR,HeavyAtomCount,NumHAcceptors,NumHDonors,NumHeteroatoms,NumRotatableBonds,NumValenceElectrons,NumAromaticRings,NumSaturatedRings,NumAliphaticRings,RingCount,TPSA,LabuteASA,BalabanJ,BertzCT
B-25,epinephrine,"InChI=1S/C9H13NO3/c1-10-5-9(13)6-2-3-7(11)8(12)4-6/h2-4,9-13H,5H2,1H3/t9-/m0/s1",UCTWMZQNUQWSLP-VIFPVBQESA-N,CNC[C@H](O)c1ccc(O)c(O)c1,-3.0077,0.0,1,G1,183.207,0.3506000000000001,48.658100000000026,13.0,4.0,4.0,4.0,3.0,72.0,1.0,0.0,0.0,1.0,72.72,76.45879290288288,2.8351682624881787,288.1883450849283
B-69,sulfanilyl guanadine,"InChI=1S/C7H10N4O2S/c8-5-1-3-6(4-2-5)14(12,13)11-7(9)10/h1-4H,8H2,(H4,9,10,11)",BRBKOPJOKNSWSG-UHFFFAOYSA-N,NC(N)=NS(=O)(=O)c1ccc(N)cc1,-1.9885,0.0,1,G1,214.25,-0.7690999999999999,53.85,14.0,3.0,3.0,7.0,2.0,76.0,1.0,0.0,0.0,1.0,124.56,81.47211570320692,3.181937534409693,445.0830683691334
B-84,"1,2-propanediol-3-(2-tolyloxy)","InChI=1S/C10H14O3/c1-8-4-2-3-5-10(8)13-7-9(12)6-11/h2-5,9,11-12H,6-7H2,1H3",JWDYCNIAQWPBHD-UHFFFAOYSA-N,Cc1ccccc1OCC(O)CO,-1.1887,0.0,1,G1,182.219,0.7270199999999998,49.76660000000003,13.0,3.0,2.0,3.0,4.0,72.0,1.0,0.0,0.0,1.0,49.69,77.5931843109823,2.4953895881253176,260.10170031680724
B-85,3-methyl-4-chlorophenol,"InChI=1S/C7H7ClO/c1-5-4-6(9)2-3-7(5)8/h2-4,9H,1H3",CFKMVGJGLGKFKI-UHFFFAOYSA-N,Cc1cc(O)ccc1Cl,-1.5704,0.0552,2,G3,142.58499999999998,2.35402,37.853800000000014,9.0,1.0,1.0,2.0,0.0,48.0,1.0,0.0,0.0,1.0,20.23,58.89384521297126,3.1716780304409156,220.15617759993404
B-90,dopa,"InChI=1S/C9H11NO4/c10-6(9(13)14)3-5-1-2-7(11)8(12)4-5/h1-2,4,6,11-12H,3,10H2,(H,13,14)",WTDRDQBEARUVNC-UHFFFAOYSA-N,NC(Cc1ccc(O)c(O)c1)C(=O)O,-1.5959,0.1447494463624031,3,G5,197.18999999999997,0.0521999999999999,49.08680000000002,14.0,4.0,4.0,5.0,3.0,76.0,1.0,0.0,0.0,1.0,103.78,80.41034351633131,2.7772680269131413,350.6652327975252
B-114,n-methyl o-(3-isopropylphenyl)carbamate,"InChI=1S/C11H15NO2/c1-8(2)9-5-4-6-10(7-9)14-11(13)12-3/h4-8H,1-3H3,(H,12,13)",GYKXQTKSWLAUIT-UHFFFAOYSA-N,CNC(=O)Oc1cccc(C(C)C)c1,-3.3567,0.0,1,G1,193.246,2.528200000000001,55.614700000000035,14.0,2.0,1.0,3.0,2.0,76.0,1.0,0.0,0.0,1.0,38.33,84.08104320463868,2.781384662198301,320.8184995540784
B-124,"3,5-diiodotyrosine","InChI=1S/C9H9I2NO3/c10-5-1-4(2-6(11)8(5)13)3-7(12)9(14)15/h1-2,7,13H,3,12H2,(H,14,15)/t7-/m0/s1",NYPYHUZRZVSYKL-ZETCQYMHSA-N,N[C@@H](Cc1cc(I)c(O)c(I)c1)C(=O)O,-2.8583,0.0070999999999998,2,G3,432.98300000000006,1.5557999999999998,72.85600000000001,15.0,3.0,3.0,6.0,3.0,82.0,1.0,0.0,0.0,1.0,83.55000000000001,114.1397860062226,2.9237270307423464,371.9390010832792
B-143,"1-fluoro-2,4-dinitrobenzene",InChI=1S/C6H3FN2O4/c7-5-2-1-4(8(10)11)3-6(5)9(12)13/h1-3H,LOTKRQAVGJMPNV-UHFFFAOYSA-N,O=[N+]([O-])c1ccc(F)c([N+](=O)[O-])c1,-2.6677,0.0,1,G1,186.098,1.6421,39.70880000000001,13.0,4.0,0.0,7.0,2.0,68.0,1.0,0.0,0.0,1.0,86.28,70.90288996742281,3.267052212361691,378.8970430243959
B-265,p-tert-amylphenol,"InChI=1S/C11H16O/c1-4-11(2,3)9-5-7-10(12)8-6-9/h5-8,12H,4H2,1-3H3",NRZWYNLTFLDQQX-UHFFFAOYSA-N,CCC(C)(C)c1ccc(O)cc1,-2.9902,0.0267267555000001,2,G3,164.248,3.0798000000000014,51.42380000000004,12.0,1.0,1.0,1.0,2.0,66.0,1.0,0.0,0.0,1.0,20.23,74.05034744367602,2.9642864574405583,246.2115519825244
B-272,musk ketone,"InChI=1S/C14H18N2O5/c1-7-10(9(3)17)8(2)13(16(20)21)11(14(4,5)6)12(7)15(18)19/h1-6H3",WXCMHFPAUCOJIG-UHFFFAOYSA-N,CC(=O)c1c(C)c([N+](=O)[O-])c(C(C)(C)C)c([N+](=O)[O-])c1C,-5.1901,0.0,1,G1,294.307,3.6199400000000033,77.92930000000001,21.0,5.0,0.0,7.0,3.0,114.0,1.0,0.0,0.0,1.0,103.35,121.81841357971317,4.1661356749356,615.3038176152639
B-298,didecyl phthalate,"InChI=1S/C28H46O4/c1-3-5-7-9-11-13-15-19-23-31-27(29)25-21-17-18-22-26(25)28(30)32-24-20-16-14-12-10-8-6-4-2/h17-18,21-22H,3-16,19-20,23-24H2,1-2H3",PGIBJVOPLXHHGS-UHFFFAOYSA-N,CCCCCCCCCCOC(=O)c1ccccc1C(=O)OCCCCCCCCCC,-9.3076,0.0,1,G1,446.6720000000005,8.281600000000006,132.22700000000006,32.0,4.0,0.0,4.0,20.0,182.0,1.0,0.0,0.0,1.0,52.60000000000001,196.01026429532376,2.2375678668586367,558.2048653628334
B-310,"benzaldehyde, 3,4,5-trimethoxy-","InChI=1S/C10H12O4/c1-12-8-4-7(6-11)5-9(13-2)10(8)14-3/h4-6H,1-3H3",OPHQOIGEOHXOGX-UHFFFAOYSA-N,COc1cc(C=O)cc(OC)c1OC,-2.1195,0.0,1,G1,196.20199999999997,1.5248999999999997,51.48550000000003,14.0,4.0,0.0,4.0,4.0,76.0,1.0,0.0,0.0,1.0,44.760000000000005,82.3933293656478,3.309285566741771,307.88903760611623
B-311,"benzoic acid, 2-hydroxy-, 3-methylbutyl ester","InChI=1S/C12H16O3/c1-9(2)7-8-15-12(14)10-5-3-4-6-11(10)13/h3-6,9,13H,7-8H2,1-2H3",PMGCQNGBLMMXEW-UHFFFAOYSA-N,CC(C)CCOC(=O)c1ccccc1O,-3.1572,0.0,1,G1,208.257,2.5951000000000017,57.84430000000004,15.0,3.0,1.0,3.0,4.0,82.0,1.0,0.0,0.0,1.0,46.53,89.69035688762328,2.50866447696668,331.39404607382073
B-312,"benzoic acid, 2-hydroxy-, 2-hydroxyethyl ester","InChI=1S/C9H10O4/c10-5-6-13-9(12)7-3-1-2-4-8(7)11/h1-4,10-11H,5-6H2",LVYLCBNXHHHPSB-UHFFFAOYSA-N,O=C(OCCO)c1ccccc1O,-1.1567,0.0,1,G1,182.175,0.5412999999999999,45.475100000000026,13.0,4.0,2.0,4.0,3.0,70.0,1.0,0.0,0.0,1.0,66.76,75.38976429662947,2.710721902361315,295.4211052507959
B-317,2-methyl-6-chlorophenol,"InChI=1S/C7H7ClO/c1-5-3-2-4-6(8)7(5)9/h2-4,9H,1H3",YPNZJHFXFVLXSE-UHFFFAOYSA-N,Cc1cccc(Cl)c1O,-0.7739,0.0,1,G1,142.585,2.3540200000000007,37.85380000000001,9.0,1.0,1.0,2.0,0.0,48.0,1.0,0.0,0.0,1.0,20.23,58.89384521297126,3.2478347337367026,199.9061775999341
B-318,"1,2,3-trihydroxybenzene","InChI=1S/C6H6O3/c7-4-2-1-3-5(8)6(4)9/h1-3,7-9H",WQGWDDDVZFFDIG-UHFFFAOYSA-N,Oc1cccc(O)c1O,0.6043,0.04785,2,G3,126.11099999999998,0.8033999999999997,31.436399999999992,9.0,3.0,3.0,3.0,0.0,48.0,1.0,0.0,0.0,1.0,60.69,51.814104376085,3.2478347337367026,199.2929995478469
B-320,hexabromobenzene,InChI=1S/C6Br6/c7-1-2(8)4(10)6(12)5(11)3(1)9,CAYGQBVSOZLICD-UHFFFAOYSA-N,Brc1c(Br)c(Br)c(Br)c(Br)c1Br,-9.5374,0.1013000000000001,2,G3,551.49,6.261600000000001,72.642,12.0,0.0,0.0,6.0,0.0,66.0,1.0,0.0,0.0,1.0,0.0,120.6366887533451,3.603567451474547,226.30309024251744
B-324,"2,4,6-trichlorophenol","InChI=1S/C6H3Cl3O/c7-3-1-4(8)6(10)5(9)2-3/h1-2,10H",LINPIYWFGCPVIE-UHFFFAOYSA-N,Oc1c(Cl)cc(Cl)cc1Cl,-2.3924,0.0262,2,G3,197.448,3.3523999999999994,43.13680000000001,10.0,1.0,1.0,4.0,0.0,54.0,1.0,0.0,0.0,1.0,20.23,73.135435552338,3.310532874722407,236.16499587006643
B-327,3-trifluoromethyl-4-nitrophenol,"InChI=1S/C7H4F3NO3/c8-7(9,10)5-3-4(12)1-2-6(5)11(13)14/h1-3,12H",ZEFMBAFMCSYJOO-UHFFFAOYSA-N,O=[N+]([O-])c1ccc(O)cc1C(F)(F)F,-1.6172,0.0,1,G1,207.10699999999997,2.3192000000000004,39.76320000000001,14.0,3.0,1.0,7.0,1.0,76.0,1.0,0.0,0.0,1.0,63.37,75.74016091736809,3.3771158134046155,374.93303613863793
B-329,dinoseb,"InChI=1S/C10H12N2O5/c1-3-6(2)8-4-7(11(14)15)5-9(10(8)13)12(16)17/h4-6,13H,3H2,1-2H3",OWZPCEFYPSAJFR-UHFFFAOYSA-N,CCC(C)c1cc([N+](=O)[O-])cc([N+](=O)[O-])c1O,-3.6646,0.2573985867026204,3,G5,240.21499999999995,2.7221000000000024,60.121600000000015,17.0,5.0,1.0,7.0,4.0,92.0,1.0,0.0,0.0,1.0,106.51,96.99135677427898,3.4804705364557766,472.0092160085263
B-331,"1,2-benzenedicarboxamide","InChI=1S/C8H8N2O2/c9-7(11)5-3-1-2-4-6(5)8(10)12/h1-4H,(H2,9,11)(H2,10,12)",NAYYNDKKHOIIOD-UHFFFAOYSA-N,NC(=O)c1ccccc1C(N)=O,-2.4371,0.2414499999999999,2,G3,164.16399999999996,-0.1155999999999998,43.4778,12.0,2.0,2.0,4.0,2.0,62.0,1.0,0.0,0.0,1.0,86.18,69.16411294240314,3.267076195703771,300.58467465916425
B-334,"benzeneacetic acid, 2-carboxy-","InChI=1S/C9H8O4/c10-8(11)5-6-3-1-2-4-7(6)9(12)13/h1-4H,5H2,(H,10,11)(H,12,13)",ZHQLTKAVLJKSKR-UHFFFAOYSA-N,O=C(O)Cc1ccccc1C(=O)O,-1.0515,0.0,1,G1,180.15899999999996,1.0119,44.74110000000001,13.0,2.0,2.0,4.0,3.0,68.0,1.0,0.0,0.0,1.0,74.6,74.43774116716635,3.0435273546341013,343.2228677267164
B-335,4-chloro-2-nitroaniline,"InChI=1S/C6H5ClN2O2/c7-4-1-2-5(8)6(3-4)9(10)11/h1-3H,8H2",PBGKNXWGYQPUJK-UHFFFAOYSA-N,Nc1ccc(Cl)cc1[N+](=O)[O-],-2.5380000000000003,0.3583482913499998,2,G3,172.571,1.8304,42.518800000000006,11.0,3.0,1.0,5.0,1.0,58.0,1.0,0.0,0.0,1.0,69.16,67.72753576589115,3.232208870305491,300.6337992264624
B-336,4-chloro-2-nitrophenol,"InChI=1S/C6H4ClNO3/c7-4-1-2-6(9)5(3-4)8(10)11/h1-3,9H",NWSIFTLPLKCTSX-UHFFFAOYSA-N,O=[N+]([O-])c1cc(Cl)ccc1O,-3.0902,0.0,1,G1,173.55499999999998,1.9538,39.77120000000001,11.0,3.0,1.0,5.0,1.0,58.0,1.0,0.0,0.0,1.0,63.37,67.18187882107445,3.232208870305491,299.8789117242989
B-338,chlorothymol,"InChI=1S/C10H13ClO/c1-6(2)8-5-9(11)7(3)4-10(8)12/h4-6,12H,1-3H3",KFZXVMNBUMVKLN-UHFFFAOYSA-N,Cc1cc(O)c(C(C)C)cc1Cl,-2.2664,0.0,1,G1,184.666,3.4774200000000026,51.94280000000003,12.0,1.0,1.0,2.0,1.0,66.0,1.0,0.0,0.0,1.0,20.23,77.9886715561611,3.231552503570132,292.1352079833958
B-358,"ethanol, 2-(ethylphenylamino)-","InChI=1S/C10H15NO/c1-2-11(8-9-12)10-6-4-3-5-7-10/h3-7,12H,2,8-9H2,1H3",HYVGFUIWHXLVNV-UHFFFAOYSA-N,CCN(CCO)c1ccccc1,-1.9171,0.0,1,G1,165.236,1.5052,51.41480000000004,12.0,2.0,1.0,2.0,4.0,66.0,1.0,0.0,0.0,1.0,23.47,73.44523899948278,2.662895642916564,210.3383811054637
B-362,"benzaldehyde, 2,5-dimethoxy-","InChI=1S/C9H10O3/c1-11-8-3-4-9(12-2)7(5-8)6-10/h3-6H,1-2H3",AFUKNJHPZAVHGQ-UHFFFAOYSA-N,COc1ccc(OC)c(C=O)c1,-2.3202,0.0,1,G1,166.176,1.5163,44.93350000000002,12.0,3.0,0.0,3.0,3.0,64.0,1.0,0.0,0.0,1.0,35.53,70.9148420217443,3.0999386159446907,281.102178757748
B-369,"2,4,5-tb","InChI=1S/C10H9Cl3O3/c11-6-4-8(13)9(5-7(6)12)16-3-1-2-10(14)15/h4-5H,1-3H2,(H,14,15)",RTWCZQFXFMXXKP-UHFFFAOYSA-N,O=C(O)CCCOc1cc(Cl)c(Cl)cc1Cl,-3.8294,0.0,1,G1,283.538,3.8904000000000014,63.836800000000025,16.0,2.0,1.0,6.0,5.0,88.0,1.0,0.0,0.0,1.0,46.53,107.87027133947504,2.537807527581172,393.1407987110953
B-370,"1,3-butanedione, 1-phenyl-","InChI=1S/C10H10O2/c1-8(11)7-10(12)9-5-3-2-4-6-9/h2-6H,7H2,1H3",CVBUKMMMRLOKQR-UHFFFAOYSA-N,CC(=O)CC(=O)c1ccccc1,-2.6268,0.0,1,G1,162.188,1.8484,46.070500000000024,12.0,2.0,0.0,2.0,3.0,62.0,1.0,0.0,0.0,1.0,34.14,71.21421577717092,2.725078186491341,287.9667060215555
B-372,"2,4-d, isopropyl ester","InChI=1S/C11H12Cl2O3/c1-7(2)16-11(14)6-15-10-4-3-8(12)5-9(10)13/h3-5,7H,6H2,1-2H3",WHOKDONDRZNCBC-UHFFFAOYSA-N,CC(C)OC(=O)COc1ccc(Cl)cc1Cl,-3.848,0.0,1,G1,263.12,3.323800000000002,63.18500000000003,16.0,3.0,0.0,5.0,4.0,88.0,1.0,0.0,0.0,1.0,35.53,104.25125870430084,2.5137710721643542,377.49246638571486
B-373,"benzoic acid, 4-amino-, 2-methylpropyl ester","InChI=1S/C11H15NO2/c1-8(2)7-14-11(13)9-3-5-10(12)6-4-9/h3-6,8H,7,12H2,1-2H3",PUYOAVGNCWPANW-UHFFFAOYSA-N,CC(C)COC(=O)c1ccc(N)cc1,-2.9437,0.0,1,G1,193.246,2.0816,55.97490000000003,14.0,3.0,1.0,3.0,3.0,76.0,1.0,0.0,0.0,1.0,52.32,83.87107171804337,2.5660357728607748,303.5684995540784
B-374,parethoxycaine,"InChI=1S/C15H23NO3/c1-4-16(5-2)11-12-19-15(17)13-7-9-14(10-8-13)18-6-3/h7-10H,4-6,11-12H2,1-3H3",OWWVHQUOYSPNNE-UHFFFAOYSA-N,CCOc1ccc(C(=O)OCCN(CC)CC)cc1,-2.7145,0.0,1,G1,265.3529999999999,2.5839000000000008,75.68150000000004,19.0,4.0,0.0,4.0,8.0,106.0,1.0,0.0,0.0,1.0,38.77,114.86432837832731,2.4032661185674624,371.4820059877595
B-377,"2,4-d, butyl ester","InChI=1S/C12H14Cl2O3/c1-2-3-6-16-12(15)8-17-11-5-4-9(13)7-10(11)14/h4-5,7H,2-3,6,8H2,1H3",UQMRAFJOBWOFNS-UHFFFAOYSA-N,CCCCOC(=O)COc1ccc(Cl)cc1Cl,-3.78,0.0,1,G1,277.147,3.7155000000000022,67.82400000000004,17.0,3.0,0.0,5.0,6.0,94.0,1.0,0.0,0.0,1.0,35.53,110.61620081869748,2.366463998272113,380.013532483327
B-378,mcpb,"InChI=1S/C11H13ClO3/c1-8-7-9(12)4-5-10(8)15-6-2-3-11(13)14/h4-5,7H,2-3,6H2,1H3,(H,13,14)",LLWADFLAOKUBDR-UHFFFAOYSA-N,Cc1cc(Cl)ccc1OCCCC(=O)O,-3.678,0.0,1,G1,228.67499999999995,2.8920200000000005,58.55380000000003,15.0,2.0,1.0,4.0,5.0,82.0,1.0,0.0,0.0,1.0,46.53,93.62868100010836,2.404692996477169,349.6863125286536
B-384,"3,4-xylidine","InChI=1S/C8H11N/c1-6-3-4-8(9)5-7(6)2/h3-5H,9H2,1-2H3",DOLQYFPDPKPQSS-UHFFFAOYSA-N,Cc1ccc(N)cc1C,-1.5036,0.0,1,G1,121.183,1.88564,40.32840000000001,9.0,1.0,1.0,1.0,0.0,48.0,1.0,0.0,0.0,1.0,26.02,55.50117804530289,3.171678030440915,215.80766205433727
B-386,"3,4-dichlorophenol","InChI=1S/C6H4Cl2O/c7-5-2-1-4(9)3-6(5)8/h1-3,9H",WDNBURPWRNALGP-UHFFFAOYSA-N,Oc1ccc(Cl)c(Cl)c1,-1.2458,0.0,1,G1,163.003,2.6990000000000007,38.12680000000001,9.0,1.0,1.0,3.0,0.0,48.0,1.0,0.0,0.0,1.0,20.23,62.83216932545633,3.1716780304409156,222.29788705001033
B-415,"1,2-benzenediol, 4-(1,1-dimethylethyl)-","InChI=1S/C10H14O2/c1-10(2,3)7-4-5-8(11)9(12)6-7/h4-6,11-12H,1-3H3",XESZUVZBAMCAEJ-UHFFFAOYSA-N,CC(C)(C)c1ccc(O)c(O)c1,-1.9197,0.1611330062,2,G3,166.21999999999997,2.3953000000000015,48.47160000000004,12.0,2.0,2.0,2.0,0.0,66.0,1.0,0.0,0.0,1.0,40.46,72.47963908147543,3.138261335720987,284.38032048123233
B-420,"benzenesulfonyl chloride, 4-iodo-","InChI=1S/C6H4ClIO2S/c7-11(9,10)6-3-1-5(8)2-4-6/h1-4H",POXFXTSTVWDWIR-UHFFFAOYSA-N,O=S(=O)(Cl)c1ccc(I)cc1,-4.2686,0.0,1,G1,302.52,2.2187,52.197800000000015,11.0,2.0,0.0,5.0,1.0,60.0,1.0,0.0,0.0,1.0,34.14,83.12570910240471,3.2015159310664942,343.3499619957354
B-422,alpha-methylbenzyl alcohol,"InChI=1S/C8H10O/c1-7(9)8-5-3-2-4-6-8/h2-7,9H,1H3",WAPNOHKVXSQRPX-UHFFFAOYSA-N,CC(O)c1ccccc1,-1.7969,0.4958520111361816,3,G5,122.16699999999996,1.7399,37.07580000000001,9.0,1.0,1.0,1.0,1.0,48.0,1.0,0.0,0.0,1.0,20.23,54.95552110048619,2.848234050597751,167.1823264341432
B-423,(dichloromethyl)benzene,"InChI=1S/C7H6Cl2/c8-7(9)6-4-2-1-3-5-6/h1-5,7H",CAHQGWAXKLQREW-UHFFFAOYSA-N,ClC(Cl)c1ccccc1,-2.8089999999999997,0.6743457336000003,2,G2,161.031,3.1628000000000016,40.88900000000002,9.0,0.0,0.0,2.0,1.0,48.0,1.0,0.0,0.0,1.0,0.0,64.40287768765691,2.848234050597751,169.53084197973996
B-426,methyl gallate,"InChI=1S/C8H8O5/c1-13-8(12)4-2-5(9)7(11)6(10)3-4/h2-3,9-11H,1H3",FBSFWRHWHYMIOG-UHFFFAOYSA-N,COC(=O)c1cc(O)c(O)c(O)c1,-1.2399,0.0,1,G1,184.147,0.5899999999999996,42.77590000000002,13.0,5.0,3.0,5.0,1.0,70.0,1.0,0.0,0.0,1.0,86.99000000000001,73.81905593442886,3.20372282479125,321.38277726093344
B-427,"2,6-dichloro-4-nitroaniline","InChI=1S/C6H4Cl2N2O2/c7-4-1-3(10(11)12)2-5(8)6(4)9/h1-2H,9H2",BIXZHMJUSMUDOQ-UHFFFAOYSA-N,Nc1c(Cl)cc([N+](=O)[O-])cc1Cl,-4.4709,0.0,1,G1,207.01599999999996,2.4838000000000005,47.5288,12.0,3.0,1.0,6.0,1.0,64.0,1.0,0.0,0.0,1.0,69.16,78.03080199277282,3.306535412749064,317.31512465051026
B-432,p-(sec-butyl)phenol,"InChI=1S/C10H14O/c1-3-8(2)9-4-6-10(11)7-5-9/h4-8,11H,3H2,1-2H3",ZUTYZAFDFLLILI-UHFFFAOYSA-N,CCC(C)c1ccc(O)cc1,-2.1945,0.0,1,G1,150.22099999999998,2.9057000000000013,46.81280000000004,11.0,1.0,1.0,1.0,2.0,60.0,1.0,0.0,0.0,1.0,20.23,67.6854053292794,2.8057445316140472,212.81931585565167
B-436,terephthalic acid,"InChI=1S/C8H6O4/c9-7(10)5-1-2-6(4-3-5)8(11)12/h1-4H,(H,9,10)(H,11,12)",KKEYFWRCBNTPAC-UHFFFAOYSA-N,O=C(O)c1ccc(C(=O)O)cc1,-4.0444,0.0727999999999999,2,G3,166.13199999999998,1.083,40.360600000000005,12.0,2.0,2.0,4.0,2.0,62.0,1.0,0.0,0.0,1.0,74.6,68.07279905276974,3.0061498337295465,279.3346746591642
B-447,cloprop,"InChI=1S/C9H9ClO3/c1-6(9(11)12)13-8-4-2-3-7(10)5-8/h2-6H,1H3,(H,11,12)",YNTJKQDWYXUTLZ-UHFFFAOYSA-N,CC(Oc1cccc(Cl)c1)C(=O)O,-2.2232,0.0,1,G1,200.621,2.1919,49.17780000000002,13.0,2.0,1.0,4.0,3.0,70.0,1.0,0.0,0.0,1.0,46.53,80.89879677131513,2.688220172626696,311.48305328030176
B-455,"1,3,5-triethylbenzene","InChI=1S/C12H18/c1-4-10-7-11(5-2)9-12(6-3)8-10/h7-9H,4-6H2,1-3H3",WJYMPXJVHNDZHD-UHFFFAOYSA-N,CCc1cc(CC)cc(CC)c1,-7.0641,0.0,1,G1,162.27599999999998,3.373800000000002,54.57600000000004,12.0,0.0,0.0,0.0,3.0,66.0,1.0,0.0,0.0,1.0,0.0,75.6210558058766,3.011257354290591,192.98255553483455
B-464,(2-bromoethyl)benzene,"InChI=1S/C8H9Br/c9-7-6-8-4-2-1-3-5-8/h1-5H,6-7H2",WMPPDTMATNBGJN-UHFFFAOYSA-N,BrCCc1ccccc1,-3.6757,0.0,1,G1,185.064,2.624000000000001,43.940000000000026,9.0,0.0,0.0,1.0,2.0,48.0,1.0,0.0,0.0,1.0,0.0,64.02883495393154,2.61489994009295,157.4784207656209
B-465,n-methylbenzylamine,"InChI=1S/C8H11N/c1-9-7-8-5-3-2-4-6-8/h2-6,9H,7H2,1H3",RIWRFSMVIUAEBX-UHFFFAOYSA-N,CNCc1ccccc1,0.9166,0.0,1,G1,121.18299999999996,1.406,39.205700000000014,9.0,1.0,1.0,1.0,2.0,48.0,1.0,0.0,0.0,1.0,12.03,55.71114953189822,2.61489994009295,157.4784207656209
B-468,4-methylacetanilide,"InChI=1S/C9H11NO/c1-7-3-5-9(6-4-7)10-8(2)11/h3-6H,1-2H3,(H,10,11)",YICAMJWHIUMFDI-UHFFFAOYSA-N,CC(=O)Nc1ccc(C)cc1,-2.0946,0.0672999999999999,2,G3,149.19299999999998,1.95342,45.48270000000002,11.0,1.0,1.0,2.0,1.0,58.0,1.0,0.0,0.0,1.0,29.1,66.23761374633858,2.7362980721056545,250.77017257091023
B-470,thiacetazone,"InChI=1S/C10H12N4OS/c1-7(15)13-9-4-2-8(3-5-9)6-12-14-10(11)16/h2-6H,1H3,(H,13,15)(H3,11,14,16)/b12-6+",SRVJKTDHMYAMHA-WUXMJOGZSA-N,CC(=O)Nc1ccc(/C=N/NC(N)=S)cc1,-3.429,0.0,1,G1,236.3,0.8120999999999998,68.2608,16.0,3.0,3.0,6.0,3.0,84.0,1.0,0.0,0.0,1.0,79.51,98.71654749465591,2.6043534448757444,413.3321354705385
B-471,p-toluenesulfonic acid,"InChI=1S/C7H8O3S/c1-6-2-4-7(5-3-6)11(8,9)10/h2-5H,1H3,(H,8,9,10)",JOXIMZWYDAKGHI-UHFFFAOYSA-N,Cc1ccc(S(=O)(=O)O)cc1,0.5564,0.13488002585,2,G3,172.20499999999998,1.24172,40.993600000000015,11.0,2.0,1.0,4.0,1.0,60.0,1.0,0.0,0.0,1.0,54.37,65.4249812439342,3.2015159310664942,336.4533650434956
B-472,"2-propenoic acid, 3-(4-methoxyphenyl)-, 2-ethoxy","InChI=1S/C14H18O4/c1-3-17-10-11-18-14(15)9-6-12-4-7-13(16-2)8-5-12/h4-9H,3,10-11H2,1-2H3/b9-6+",CMDKPGRTAQVGFQ-RMKNXTFCSA-N,CCOCCOC(=O)/C=C/c1ccc(OC)cc1,-2.6995,0.0,1,G1,250.294,2.2881,69.48000000000005,18.0,4.0,0.0,4.0,7.0,98.0,1.0,0.0,0.0,1.0,44.760000000000005,107.16349479105,2.3520273849290265,381.2853943754878
B-473,chlorphenesin,"InChI=1S/C9H11ClO3/c10-7-1-3-9(4-2-7)13-6-8(12)5-11/h1-4,8,11-12H,5-6H2",MXOAEAUPQDYUQM-UHFFFAOYSA-N,OCC(O)COc1ccc(Cl)cc1,-1.3067,1.3690239838,2,G2,202.63700000000003,1.072,50.03960000000003,13.0,3.0,2.0,4.0,4.0,72.0,1.0,0.0,0.0,1.0,49.69,81.53150842346736,2.411261457917634,247.54165625270005
B-476,1-phenyldecane,"InChI=1S/C16H26/c1-2-3-4-5-6-7-8-10-13-16-14-11-9-12-15-16/h9,11-12,14-15H,2-8,10,13H2,1H3",UZILCZKGXMQEQR-UHFFFAOYSA-N,CCCCCCCCCCc1ccccc1,-7.959,0.0,1,G1,218.384,5.369800000000005,72.75600000000006,16.0,0.0,0.0,0.0,9.0,90.0,1.0,0.0,0.0,1.0,0.0,101.08082426346309,1.8867858752137912,237.4750399341736
B-552,m-chlorotoluene,"InChI=1S/C7H7Cl/c1-6-3-2-4-7(8)5-6/h2-5H,1H3",OSOUNOBYRMOXQQ-UHFFFAOYSA-N,Cc1cccc(Cl)c1,-3.5228,0.0,1,G1,126.586,2.6484200000000007,36.189,8.0,0.0,0.0,1.0,0.0,42.0,1.0,0.0,0.0,1.0,0.0,54.09961146077524,3.077660437970554,164.24662946459569
B-565,thiophenol,"InChI=1S/C6H6S/c7-6-4-2-1-3-5-6/h1-5,7H",RMVRSNDYEFQCLF-UHFFFAOYSA-N,Sc1ccccc1,-2.1204,0.0,1,G1,110.18099999999995,1.9752999999999996,33.694,7.0,1.0,1.0,1.0,0.0,36.0,1.0,0.0,0.0,1.0,0.0,48.58646978289869,3.0214653097240864,134.10736969541455
B-656,propoxur,"InChI=1S/C11H15NO3/c1-8(2)14-9-6-4-5-7-10(9)15-11(13)12-3/h4-8H,1-3H3,(H,12,13)",ISRUGXGCCGIOQO-UHFFFAOYSA-N,CNC(=O)Oc1ccccc1OC(C)C,-2.0512,0.0,1,G1,209.245,2.192,57.28970000000004,15.0,3.0,1.0,4.0,3.0,82.0,1.0,0.0,0.0,1.0,47.56,89.19458843414556,2.809453207323335,336.3598482774643
B-682,bis(methoxyethyl)phthalate,"InChI=1S/C14H18O6/c1-17-7-9-19-13(15)11-5-3-4-6-12(11)14(16)20-10-8-18-2/h3-6H,7-10H2,1-2H3",HSUIVCLOAAJSRE-UHFFFAOYSA-N,COCCOC(=O)c1ccccc1C(=O)OCCOC,-1.5213,0.0,1,G1,282.292,1.293,70.75900000000004,20.0,6.0,0.0,6.0,8.0,110.0,1.0,0.0,0.0,1.0,71.06,117.12816515278492,2.7123913375014235,402.0451982557764
B-683,dioctyl phthalate,"InChI=1S/C24H38O4/c1-3-5-7-9-11-15-19-27-23(25)21-17-13-14-18-22(21)24(26)28-20-16-12-10-8-6-4-2/h13-14,17-18H,3-12,15-16,19-20H2,1-2H3",MQIUGAXCHLFZKX-UHFFFAOYSA-N,CCCCCCCCOC(=O)c1ccccc1C(=O)OCCCCCCCC,-7.2493,1.0671499999999998,2,G2,390.5640000000003,6.721200000000008,113.75900000000009,28.0,4.0,0.0,4.0,16.0,158.0,1.0,0.0,0.0,1.0,52.60000000000001,170.55049583773726,2.3497229976940814,504.29105939397743
B-690,4-chloro-1-nitro-2(trifluoromethyl)benzene,"InChI=1S/C7H3ClF3NO2/c8-4-1-2-6(12(13)14)5(3-4)7(9,10)11/h1-3H",CFPIGEXZPWTNOR-UHFFFAOYSA-N,O=[N+]([O-])c1ccc(Cl)cc1C(F)(F)F,-3.3533,0.1126803369499998,2,G3,225.5529999999999,3.2670000000000003,43.1084,14.0,2.0,0.0,7.0,1.0,76.0,1.0,0.0,0.0,1.0,43.14,81.24919339205375,3.3771158134046155,377.6879236408014
B-700,"benzoic acid, 2-(methylamino)-","InChI=1S/C8H9NO2/c1-9-7-5-3-2-4-6(7)8(10)11/h2-5,9H,1H3,(H,10,11)",WVMBPWMAQDVZCM-UHFFFAOYSA-N,CNc1ccccc1C(=O)O,-2.8784,0.0,1,G1,151.165,1.4265,42.948000000000015,11.0,2.0,2.0,3.0,2.0,58.0,1.0,0.0,0.0,1.0,49.33,64.66690538413799,3.121219318886157,270.54949758389114