ID,Name,InChI,InChIKey,SMILES,Solubility,SD,Occurrences,Group,MolWt,MolLogP,MolMR,HeavyAtomCount,NumHAcceptors,NumHDonors,NumHeteroatoms,NumRotatableBonds,NumValenceElectrons,NumAromaticRings,NumSaturatedRings,NumAliphaticRings,RingCount,TPSA,LabuteASA,BalabanJ,BertzCT
B-68,ethinyl estradiol,"InChI=1S/C20H24O2/c1-3-20(22)11-9-18-17-6-4-13-12-14(21)5-7-15(13)16(17)8-10-19(18,20)2/h1,5,7,12,16-18,21-22H,4,6,8-11H2,2H3/t16-,17-,18+,19+,20+/m1/s1",BFPYWIDHMRZLRN-SLHNCBLASA-N,C#C[C@]1(O)CC[C@H]2[C@@H]3CCc4cc(O)ccc4[C@H]3CC[C@@]21C,-4.4192,0.0,1,G1,296.41,3.6126000000000023,86.50660000000003,22.0,2.0,2.0,2.0,0.0,116.0,1.0,2.0,3.0,4.0,40.46,132.1107921567131,1.721704964542758,658.1613573389167
B-73,a-estradiol,"InChI=1S/C18H24O2/c1-18-9-8-14-13-5-3-12(19)10-11(13)2-4-15(14)16(18)6-7-17(18)20/h3,5,10,14-17,19-20H,2,4,6-9H2,1H3/t14-,15-,16+,17-,18+/m1/s1",VOXZDWNPVJITMN-SFFUCWETSA-N,C[C@]12CC[C@@H]3c4ccc(O)cc4CC[C@H]3[C@@H]1CC[C@H]2O,-4.8441,0.0,1,G1,272.388,3.609200000000002,78.73060000000004,20.0,2.0,2.0,2.0,0.0,108.0,1.0,2.0,3.0,4.0,40.46,120.38168253606062,1.7111998765070122,538.2198018097884
A-4854,"2-phenyl-1H-1,3-benzodiazole-5-sulfonic acid","InChI=1S/C13H10N2O3S/c16-19(17,18)10-6-7-11-12(8-10)15-13(14-11)9-4-2-1-3-5-9/h1-8H,(H,14,15)(H,16,17,18)",UVCJGUGAGLDPAA-UHFFFAOYSA-N,O=S(=O)(O)c1ccc2nc(-c3ccccc3)[nH]c2c1,-2.9611061362,0.2198473783500001,2,G3,274.301,2.4766000000000004,71.34430000000003,19.0,3.0,2.0,6.0,2.0,96.0,3.0,0.0,0.0,3.0,83.04999999999998,109.22760626929768,2.169304070159664,838.7106499881096
A-2342,"4-(2,3,4-trihydroxybenzoyl)phenyl 5-oxo-6-[(1E)-tetraaza-1,3-dien-1-yl]-5,8-dihydronaphthalene-1-sulfonate","InChI=1S/C23H16N4O8S/c24-26-27-25-17-10-8-14-15(21(17)30)2-1-3-19(14)36(33,34)35-13-6-4-12(5-7-13)20(29)16-9-11-18(28)23(32)22(16)31/h1-7,9-11,24,28,31-32H,8H2",WVRFNJXNBZHDGZ-UHFFFAOYSA-N,N=NN=NC1=CCc2c(cccc2S(=O)(=O)Oc2ccc(C(=O)c3ccc(O)c(O)c3O)cc2)C1=O,-5.1052907305,0.0,1,G1,508.46800000000025,3.8229700000000024,121.68790000000004,36.0,10.0,4.0,13.0,7.0,182.0,3.0,0.0,1.0,4.0,199.13,202.9822810845395,1.5877243597854431,1578.3370693621737
A-2267,"octamethyl-1,3,5,7,2,4,6,8-tetraoxatetrasilocane","InChI=1S/C8H24O4Si4/c1-13(2)9-14(3,4)11-16(7,8)12-15(5,6)10-13/h1-8H3",HMMGMWAXVFQUOA-UHFFFAOYSA-N,C[Si]1(C)O[Si](C)(C)O[Si](C)(C)O[Si](C)(C)O1,-6.953686490700001,0.4081905978218147,5,G5,296.62,2.8736000000000015,74.26800000000004,16.0,4.0,0.0,8.0,0.0,96.0,0.0,1.0,1.0,1.0,36.92,103.25277280587856,2.977060745318193,205.21187563522585
A-8,"zinc bis[2-hydroxy-3,5-bis(1-phenylethyl)benzoate]","InChI=1S/2C23H22O3.Zn/c2*1-15(17-9-5-3-6-10-17)19-13-20(22(24)21(14-19)23(25)26)16(2)18-11-7-4-8-12-18;/h2*3-16,24H,1-2H3,(H,25,26);/q;;+2/p-2",XTUPUYCJWKHGSW-UHFFFAOYSA-L,CC(c1ccccc1)c1cc(C(=O)[O-])c(O)c(C(C)c2ccccc2)c1.CC(c1ccccc1)c1cc(C(=O)[O-])c(O)c(C(C)c2ccccc2)c1.[Zn+2],-3.9244090954,0.0,1,G1,756.2260000000002,8.11610000000001,200.7105999999995,53.0,6.0,2.0,7.0,10.0,264.0,6.0,0.0,0.0,6.0,120.72,323.7554336987488,2.322962880266304e-07,1964.648665828827
C-2587,bromothymol  blue,"InChI=1S/C27H28Br2O5S/c1-13(2)21-18(11-15(5)25(30)23(21)28)27(17-9-7-8-10-20(17)35(32,33)34-27)19-12-16(6)26(31)24(29)22(19)14(3)4/h7-14,30-31H,1-6H3",CJBMVMMYECULNQ-UHFFFAOYSA-N,Cc1cc(C2(c3cc(C)c(O)c(Br)c3C(C)C)OS(=O)(=O)c3ccccc32)c(C(C)C)c(Br)c1O,-5.18,0.0,1,G1,624.3910000000003,7.497240000000009,143.8603999999999,35.0,5.0,2.0,8.0,4.0,186.0,3.0,0.0,1.0,4.0,83.83000000000001,223.0957496106915,2.3274444241455936,1389.6238825984417
F-629,"4-[3-(4-hydroxyphenyl)-1,1-dioxobenzo[c]oxathiol-3-yl]phenol","InChI=1S/C19H14O5S/c20-15-9-5-13(6-10-15)19(14-7-11-16(21)12-8-14)17-3-1-2-4-18(17)25(22,23)24-19/h1-12,20-21H",BELBBZDIHDAJOR-UHFFFAOYSA-N,O=S1(=O)OC(c2ccc(O)cc2)(c2ccc(O)cc2)c2ccccc21,-3.07,0.0,1,G1,354.3830000000001,3.108600000000001,90.8084,25.0,5.0,2.0,6.0,2.0,126.0,3.0,0.0,1.0,4.0,83.83000000000001,144.44111748423592,2.081243977967117,992.4323800368252
G-367,acetyl sulfisoxazole,"InChI=1S/C13H15N3O3S/c1-8-9(2)15-19-13(8)16(10(3)17)20(18)12-6-4-11(14)5-7-12/h4-7H,14H2,1-3H3",WIDMDEHGDAFXAJ-UHFFFAOYSA-N,CC(=O)N(c1onc(C)c1C)S(=O)c1ccc(N)cc1,-3.59,0.0,1,G1,293.34800000000007,1.9493400000000003,76.39980000000003,20.0,5.0,1.0,7.0,3.0,106.0,2.0,0.0,0.0,2.0,89.43,118.68447751540435,2.4378082099884137,664.0009465875022
C-791,sulpiride,"InChI=1S/C15H23N3O4S/c1-3-18-8-4-5-11(18)10-17-15(19)13-9-12(23(16,20)21)6-7-14(13)22-2/h6-7,9,11H,3-5,8,10H2,1-2H3,(H,17,19)(H2,16,20,21)",BGRJTUBHPOOWDU-UHFFFAOYSA-N,CCN1CCCC1CNC(=O)c1cc(S(N)(=O)=O)ccc1OC,-2.88,0.0,1,G1,341.43300000000005,0.5567000000000012,86.96940000000005,23.0,5.0,2.0,8.0,6.0,128.0,1.0,1.0,1.0,2.0,101.73,136.3954807683271,2.1429292572333583,675.2996041218232
A-1636,2-(chloromethyl)oxirane; 4-[2-(4-hydroxyphenyl)propan-2-yl]phenol; 2-methyloxirane,"InChI=1S/C15H16O2.C3H5ClO.C3H6O/c1-15(2,11-3-7-13(16)8-4-11)12-5-9-14(17)10-6-12;4-1-3-2-5-3;1-3-2-4-3/h3-10,16-17H,1-2H3;3H,1-2H2;3H,2H2,1H3",ZAZDSNWVKSFFLI-UHFFFAOYSA-N,CC(C)(c1ccc(O)cc1)c1ccc(O)cc1.CC1CO1.ClCC1CO1,-4.3744000378,0.0,1,G1,378.8960000000001,4.452800000000004,104.21560000000004,26.0,4.0,2.0,5.0,3.0,142.0,2.0,2.0,2.0,4.0,65.52,159.89180054541794,2.1779219846567635e-07,611.9153622026989
E-980,Cyhexatin,"InChI=1S/3C6H11.H2O.Sn/c3*1-2-4-6-5-3-1;;/h3*1H,2-6H2;1H2;",UGCNRZFAUBJVPT-UHFFFAOYSA-N,C1CC[CH]([Sn]([CH]2CCCCC2)[CH]2CCCCC2)CC1.O,-5.59,0.0,1,G1,386.18800000000033,5.659400000000007,89.87280000000005,20.0,0.0,0.0,2.0,3.0,117.0,0.0,3.0,3.0,3.0,31.5,132.8877042027419,1.4699989972507107e-06,207.3498494691417
B-3437,fenbuconazole,"InChI=1S/C19H17ClN4/c20-18-8-6-16(7-9-18)10-11-19(12-21,13-24-15-22-14-23-24)17-4-2-1-3-5-17/h1-9,14-15H,10-11,13H2",RQDJADAKIFFEKQ-UHFFFAOYSA-N,N#CC(CCc1ccc(Cl)cc1)(Cn1cncn1)c1ccccc1,-6.2264,0.0,1,G1,336.826,4.025880000000003,93.52800000000002,24.0,4.0,0.0,5.0,6.0,120.0,3.0,0.0,0.0,3.0,54.5,145.8930294498658,1.8864499085311184,806.8329428460595
B-3112,fenoxaprop ethyl,"InChI=1S/C18H16ClNO5/c1-3-22-17(21)11(2)23-13-5-7-14(8-6-13)24-18-20-15-9-4-12(19)10-16(15)25-18/h4-11H,3H2,1-2H3",PQKBPHSEKWERTG-UHFFFAOYSA-N,CCOC(=O)C(C)Oc1ccc(Oc2nc3ccc(Cl)cc3o2)cc1,-5.6042,0.0,1,G1,361.78100000000006,4.603900000000003,92.25800000000002,25.0,6.0,0.0,7.0,6.0,130.0,3.0,0.0,0.0,3.0,70.79,148.81427368974866,1.6601842524090904,874.8087391960876
B-3175,fenoxaprop-ethyl,"InChI=1S/C18H16ClNO5/c1-3-22-17(21)11(2)23-13-5-7-14(8-6-13)24-18-20-15-9-4-12(19)10-16(15)25-18/h4-11H,3H2,1-2H3/t11-/m1/s1",PQKBPHSEKWERTG-LLVKDONJSA-N,CCOC(=O)[C@@H](C)Oc1ccc(Oc2nc3ccc(Cl)cc3o2)cc1,-5.6042,0.0,1,G1,361.78100000000006,4.603900000000003,92.25800000000002,25.0,6.0,0.0,7.0,6.0,130.0,3.0,0.0,0.0,3.0,70.79,148.81427368974866,1.6601842524090904,874.8087391960876
B-3435,fenoxaprop-p,"InChI=1S/C16H12ClNO5/c1-9(15(19)20)21-11-3-5-12(6-4-11)22-16-18-13-7-2-10(17)8-14(13)23-16/h2-9H,1H3,(H,19,20)",MPPOHAUSNPTFAJ-UHFFFAOYSA-N,CC(Oc1ccc(Oc2nc3ccc(Cl)cc3o2)cc1)C(=O)O,-3.092,0.0,1,G1,333.72700000000003,4.125400000000002,83.26080000000005,23.0,5.0,1.0,7.0,5.0,118.0,3.0,0.0,0.0,3.0,81.78999999999999,135.7650779836446,1.7268298835286473,843.3028096681961
A-4924,4-[(morpholin-4-ylcarbonothioyl)sulfanyl]morpholine,InChI=1S/C9H16N2O2S2/c14-9(10-1-5-12-6-2-10)15-11-3-7-13-8-4-11/h1-8H2,HOEFWOBLOGZQIQ-UHFFFAOYSA-N,S=C(SN1CCOCC1)N1CCOCC1,-3.2913006621,0.0,1,G1,248.37299999999993,0.5838999999999999,64.97300000000003,15.0,5.0,0.0,6.0,1.0,86.0,0.0,2.0,2.0,2.0,24.94,100.01115121856306,1.7428120998332126,216.1578838997696
A-4045,"sodium 1-(3,4-dihydro-6-methyl-2,4-dioxo-2H-pyran-3-ylidene)ethanolate","InChI=1S/C8H7O4.Na/c1-4-3-6(10)7(5(2)9)8(11)12-4;/h3H,1-2H3;/q-1;+1",YIOCQGHBBNGBND-UHFFFAOYSA-N,CC(=O)[c-]1c(=O)cc(C)oc1=O.[Na+],0.0845613317,0.0,1,G1,190.12999999999997,-2.7660799999999997,41.58250000000001,13.0,4.0,0.0,5.0,1.0,64.0,1.0,0.0,0.0,1.0,64.35,96.22901220953908,1.4399997042000626e-06,395.25554659834296
A-2461,zinc bis[bis(tetrapropylenephenyl)] bis(hydrogen dithiophosphate),"InChI=1S/2C36H59O2PS2.Zn/c2*1-9-13-27(5)35(15-11-3)29(7)25-31-17-21-33(22-18-31)37-39(40,41)38-34-23-19-32(20-24-34)26-30(8)36(16-12-4)28(6)14-10-2;/h2*17-24,27-30,35-36H,9-16,25-26H2,1-8H3,(H,40,41);/q;;+2/p-2",JVQCNSRVEPWJNL-UHFFFAOYSA-L,CCCC(C)C(CCC)C(C)Cc1ccc(OP(=S)([S-])Oc2ccc(CC(C)C(CCC)C(C)CCC)cc2)cc1.CCCC(C)C(CCC)C(C)Cc1ccc(OP(=S)([S-])Oc2ccc(CC(C)C(CCC)C(C)CCC)cc2)cc1.[Zn+2],-5.4154147676,0.0,1,G1,1301.321999999999,23.953500000000034,372.93200000000144,83.0,8.0,0.0,11.0,40.0,464.0,4.0,0.0,0.0,4.0,36.92,544.8570656060597,5.599999582404794e-07,2061.5711937825986
B-971,hematein,"InChI=1S/C16H12O6/c17-10-2-1-8-13-9-4-12(19)11(18)3-7(9)5-16(13,21)6-22-15(8)14(10)20/h1-4,17,19-21H,5-6H2",HLUCICHZHWJHLL-UHFFFAOYSA-N,O=C1C=C2CC3(O)COc4c(ccc(O)c4O)C3=C2C=C1O,-2.6994,0.0,1,G1,300.266,1.3296,75.5552,22.0,6.0,4.0,6.0,0.0,112.0,1.0,0.0,3.0,4.0,107.22,124.44652404465732,2.02947500695494,829.2829404511175
C-2600,"l-365,209 -analog 11;  (cyclic hexapeptide)","InChI=1S/C42H54N8O6/c1-3-26(2)36-42(56)50-19-9-7-14-35(50)41(55)49-18-8-6-13-33(49)39(53)46-32(23-30-24-43-25-44-30)40(54)48-20-10-15-34(48)38(52)45-31(37(51)47-36)22-27-16-17-28-11-4-5-12-29(28)21-27/h4-5,11-12,16-17,21,24-26,31-36H,3,6-10,13-15,18-20,22-23H2,1-2H3,(H,43,44)(H,45,52)(H,46,53)(H,47,51)",ILLSOIRJMQNTIA-UHFFFAOYSA-N,CCC(C)C1NC(=O)C(Cc2ccc3ccccc3c2)NC(=O)C2CCCN2C(=O)C(Cc2c[nH]cn2)NC(=O)C2CCCCN2C(=O)C2CCCCN2C1=O,-3.98,0.0,1,G1,766.9439999999996,2.6154000000000037,208.62979999999945,56.0,7.0,4.0,14.0,6.0,298.0,3.0,4.0,4.0,7.0,176.91000000000005,327.0571871243385,1.2752356620347869,1934.3687191652316
E-1001,Pericyazine,"InChI=1S/C21H23N3OS/c22-15-16-6-7-21-19(14-16)24(18-4-1-2-5-20(18)26-21)11-3-10-23-12-8-17(25)9-13-23/h1-2,4-7,14,17,25H,3,8-13H2",LUALIOATIOESLM-UHFFFAOYSA-N,N#Cc1ccc2c(c1)N(CCCN1CCC(O)CC1)c1ccccc1S2,-3.98,0.0,1,G1,365.5020000000001,4.007780000000002,105.02580000000005,26.0,5.0,1.0,5.0,4.0,134.0,2.0,1.0,2.0,4.0,50.5,158.59090484750874,1.5185917678650596,824.2461695923865
A-2891,oxetan-2-one,InChI=1S/C3H4O2/c4-3-1-2-5-3/h1-2H2,VEZXCJBBBCKRPI-UHFFFAOYSA-N,O=C1CCO1,0.7104893861,0.0,1,G1,72.063,-0.0666999999999999,15.576,5.0,2.0,0.0,2.0,0.0,28.0,0.0,1.0,1.0,1.0,26.3,29.738371432644183,2.3224050495909916,51.91340299823497
B-3438,"2-oxetanone, 3-ethyl-4-methyl-, (3s-trans)-","InChI=1S/C6H10O2/c1-3-5-4(2)8-6(5)7/h4-5H,3H2,1-2H3/t4-,5-/m0/s1",PAIRTJOPUAQMRQ-WHFBIAKZSA-N,CC[C@@H]1C(=O)O[C@H]1C,-0.6665,0.0,1,G1,114.144,0.9579,29.334999999999987,8.0,2.0,0.0,2.0,1.0,46.0,0.0,1.0,1.0,1.0,26.3,48.833197775833995,2.399111469468693,109.09616281328596
F-1130,"5-[2-(2-aminopurin-9-yl)ethyl]-1,3-dioxan-2-one","InChI=1S/C11H13N5O3/c12-10-13-3-8-9(15-10)16(6-14-8)2-1-7-4-18-11(17)19-5-7/h3,6-7H,1-2,4-5H2,(H2,12,13,15)",OAQJLOZJYFGWIC-UHFFFAOYSA-N,Nc1ncc2ncn(CCC3COC(=O)OC3)c2n1,-1.43,0.0,1,G1,263.25699999999995,0.5815999999999999,65.14240000000002,19.0,8.0,1.0,8.0,3.0,100.0,2.0,1.0,1.0,3.0,105.15000000000002,108.103468290602,1.6806816057751068,601.3965065332533
B-3135,forchlorfenuron,"InChI=1S/C12H10ClN3O/c13-11-8-10(6-7-14-11)16-12(17)15-9-4-2-1-3-5-9/h1-8H,(H2,14,15,16,17)",GPXLRLUVLMHHIK-UHFFFAOYSA-N,O=C(Nc1ccccc1)Nc1ccnc(Cl)c1,-3.8028,0.0,1,G1,247.68500000000003,3.3790000000000004,68.33040000000001,17.0,2.0,2.0,5.0,2.0,86.0,2.0,0.0,0.0,2.0,54.02,103.63760011504564,1.9834326164411504,516.1690076839118
C-1854,3-methyl-3h-pteridin-4-one,"InChI=1S/C7H6N4O/c1-11-4-10-6-5(7(11)12)8-2-3-9-6/h2-4H,1H3",ADZLJYXPHYDHJU-UHFFFAOYSA-N,Cn1cnc2nccnc2c1=O,-1.07,0.00755,2,G3,162.15199999999996,-0.2765000000000002,42.57400000000001,12.0,5.0,0.0,5.0,0.0,60.0,2.0,0.0,0.0,2.0,60.67,67.7280952760539,3.010232459961935,476.035224843126
C-1866,7-methyl-3h-pteridin-4-one,"InChI=1S/C7H6N4O/c1-4-2-8-5-6(11-4)9-3-10-7(5)12/h2-3H,1H3,(H,9,10,11,12)",ZFKCYEYVBSXGLU-UHFFFAOYSA-N,Cc1cnc2c(=O)[nH]cnc2n1,-1.56,0.0,1,G1,162.152,0.0215199999999998,42.69070000000001,12.0,4.0,1.0,5.0,0.0,60.0,2.0,0.0,0.0,2.0,71.53,67.51812378945858,2.9590805364428694,476.035224843126
C-1869,6-methyl-3h-pteridin-4-one;  4-hydroxy-6-methylpteridine,"InChI=1S/C7H6N4O/c1-4-2-8-6-5(11-4)7(12)10-3-9-6/h2-3H,1H3,(H,8,9,10,12)",JQDJTEVUGHCYPQ-UHFFFAOYSA-N,Cc1cnc2nc[nH]c(=O)c2n1,-1.65,0.0,1,G1,162.152,0.0215199999999999,42.69070000000001,12.0,4.0,1.0,5.0,0.0,60.0,2.0,0.0,0.0,2.0,71.53,67.51812378945858,2.975180596473416,476.035224843126
C-1937,"6,7-dimethyl-3h-pteridin-4-one;  4-hydroxy-6,7-dimethylpteridine","InChI=1S/C8H8N4O/c1-4-5(2)12-7-6(11-4)8(13)10-3-9-7/h3H,1-2H3,(H,9,10,12,13)",YZZHLQUXFAOLAA-UHFFFAOYSA-N,Cc1nc2nc[nH]c(=O)c2nc1C,-2.29,0.0,1,G1,176.179,0.3299399999999999,47.42770000000001,13.0,4.0,1.0,5.0,0.0,66.0,2.0,0.0,0.0,2.0,71.53,73.88306590385518,2.9693745960815043,517.02322051618
C-2033,"2-amino-6,7-diethyl-3h-pteridin-4-one;  2-amino-6,7-diethyl-4-hydroxypteridine","InChI=1S/C10H13N5O/c1-3-5-6(4-2)13-8-7(12-5)9(16)15-10(11)14-8/h3-4H2,1-2H3,(H3,11,13,14,15,16)",GUJHFRPMSQFYJM-UHFFFAOYSA-N,CCc1nc2nc(N)[nH]c(=O)c2nc1CC,-4.28,0.0,1,G1,219.248,0.4200999999999998,61.1221,16.0,5.0,2.0,6.0,2.0,84.0,2.0,0.0,0.0,2.0,97.55,91.95284082966111,2.83095561176968,589.5144622767908
A-3765,"1,3-thiazol-5-ylmethanol","InChI=1S/C4H5NOS/c6-2-4-1-5-3-7-4/h1,3,6H,2H2",WKBQQWDVVHGWDB-UHFFFAOYSA-N,OCc1cncs1,0.5257355357,0.0,1,G1,115.15699999999998,0.6354,28.036799999999996,7.0,3.0,1.0,3.0,1.0,38.0,1.0,0.0,0.0,1.0,33.120000000000005,45.45059023744759,2.762608341443769,126.24573483855964
A-4604,"2-(2-amino-1,3-thiazol-4-yl)acetic acid","InChI=1S/C5H6N2O2S/c6-5-7-3(2-10-5)1-4(8)9/h2H,1H2,(H2,6,7)(H,8,9)",DYCLHZPOADTVKK-UHFFFAOYSA-N,Nc1nc(CC(=O)O)cs1,-1.9816731181,0.0,1,G1,158.182,0.3524,37.866200000000006,10.0,4.0,2.0,5.0,2.0,54.0,1.0,0.0,0.0,1.0,76.21000000000001,61.31694514890067,2.668811850160163,245.55091916625787
B-803,nithiazide,"InChI=1S/C6H8N4O3S/c1-2-7-5(11)9-6-8-3-4(14-6)10(12)13/h3H,2H2,1H3,(H2,7,8,9,11)",FQSUTLQHSDLLAN-UHFFFAOYSA-N,CCNC(=O)Nc1ncc([N+](=O)[O-])s1,-2.8578,0.0,1,G1,216.222,1.1927,51.4638,14.0,5.0,2.0,8.0,3.0,76.0,1.0,0.0,0.0,1.0,97.16,83.30046290380443,2.594539636377339,350.60074531069085
B-2487,"2-thiazolecarboxylic acid, hydrazide","InChI=1S/C4H5N3OS/c5-7-3(8)4-6-1-2-9-4/h1-2H,5H2,(H,7,8)",OPJYIWMGTSMLKB-UHFFFAOYSA-N,NNC(=O)c1nccs1,-0.6787,0.0,1,G1,143.17100000000002,-0.2534000000000002,33.76760000000001,9.0,4.0,2.0,5.0,1.0,48.0,1.0,0.0,0.0,1.0,68.00999999999999,55.67776748615107,2.770351770759627,195.5874816024551
C-1818,n-(5-chloro-4-methylthiazol-2-yl)propionamide,"InChI=1S/C7H9ClN2OS/c1-3-5(11)10-7-9-4(2)6(8)12-7/h3H2,1-2H3,(H,9,10,11)",QHLFJSMAWAWVRU-UHFFFAOYSA-N,CCC(=O)Nc1nc(C)c(Cl)s1,-3.06,0.0,1,G1,204.682,2.4534200000000004,50.781700000000015,12.0,3.0,1.0,5.0,2.0,66.0,1.0,0.0,0.0,1.0,41.99,79.76583333897487,2.7023096347436737,278.0965246005373
E-669,2-aminothiazole,"InChI=1S/C3H4N2S/c4-3-5-1-2-6-3/h1-2H,(H2,4,5)",RAIPHJJURHTUIC-UHFFFAOYSA-N,Nc1nccs1,-0.36,0.0,1,G1,100.146,0.7253,26.5264,6.0,3.0,1.0,3.0,0.0,32.0,1.0,0.0,0.0,1.0,38.91,39.631305067867686,3.049648321313926,112.35361803232176
F-255,"(2~{Z})-2-(1,3-thiazole-2-carbonylhydrazinylidene)propanoic acid","InChI=1S/C7H7N3O3S/c1-4(7(12)13)9-10-5(11)6-8-2-3-14-6/h2-3H,1H3,(H,10,11)(H,12,13)",XOYLOFFMDZQQKI-UHFFFAOYSA-N,CC(=NNC(=O)c1nccs1)C(=O)O,-1.93,0.0,1,G1,213.218,0.3334,50.32500000000001,14.0,5.0,2.0,7.0,3.0,74.0,1.0,0.0,0.0,1.0,91.65,83.28378147042808,2.5913656211865432,371.5415557122915
F-345,"(4E)-4-[(1,3-Thiazol-2-ylcarbonyl)hydrazono]pentanoic acid","InChI=1S/C9H11N3O3S/c1-6(2-3-7(13)14)11-12-8(15)9-10-4-5-16-9/h4-5H,2-3H2,1H3,(H,12,15)(H,13,14)",GMRLYFSSMHOUNB-UHFFFAOYSA-N,CC(CCC(=O)O)=NNC(=O)c1nccs1,-1.73,0.0,1,G1,241.272,1.1135999999999997,59.55900000000002,16.0,5.0,2.0,7.0,5.0,86.0,1.0,0.0,0.0,1.0,91.65,96.01366569922128,2.404971737487154,400.141526297928
I-37,famotidine,"InChI=1S/C8H15N7O2S3/c9-6(15-20(12,16)17)1-2-18-3-5-4-19-8(13-5)14-7(10)11/h4H,1-3H2,(H2,9,15)(H2,12,16,17)(H4,10,11,13,14)",XUFQPHANEAPEMJ-UHFFFAOYSA-N,NC(N)=Nc1nc(CSCC/C(N)=N\S(N)(=O)=O)cs1,-2.65,0.165,2,G3,337.4560000000001,-0.767999999999998,83.0924,20.0,6.0,4.0,12.0,7.0,112.0,1.0,0.0,0.0,1.0,175.82999999999998,124.28559613101793,2.3669851097896517,603.3416169759435
B-3119,metazachlor,"InChI=1S/C14H16ClN3O/c1-11-5-3-6-12(2)14(11)18(13(19)9-15)10-17-8-4-7-16-17/h3-8H,9-10H2,1-2H3",STEPQTYSZVCJPV-UHFFFAOYSA-N,Cc1cccc(C)c1N(Cn1cccn1)C(=O)CCl,-2.8102,0.6999,2,G2,277.755,2.729440000000001,76.34900000000003,19.0,3.0,0.0,5.0,4.0,100.0,2.0,0.0,0.0,2.0,38.13,117.14506335163372,2.399528775502118,545.8249830814397
B-1643,homidium bromide [ban:inn],"InChI=1S/C21H19N3.BrH/c1-2-24-20-13-16(23)9-11-18(20)17-10-8-15(22)12-19(17)21(24)14-6-4-3-5-7-14;/h3-13,23H,2,22H2,1H3;1H",ZMMJGEGLRURXTF-UHFFFAOYSA-N,CC[n+]1c(-c2ccccc2)c2cc(N)ccc2c2ccc(N)cc21.[Br-],-1.2948,0.0,1,G1,394.31600000000014,1.1358000000000017,101.5838,25.0,2.0,2.0,4.0,2.0,126.0,4.0,0.0,0.0,4.0,55.92,157.20381359183935,1.8224987868008391e-06,1059.0632211048026
A-2778,"N-(10-benzamido-6,13-diacetamido-2,9-diethoxy-5,12-dioxa-7,14-diazapentacen-3-yl)benzamide","InChI=1S/C40H34N6O8/c1-5-51-29-17-27-31(19-25(29)45-39(49)23-13-9-7-10-14-23)53-37-34(42-22(4)48)36-38(33(35(37)43-27)41-21(3)47)54-32-20-26(30(52-6-2)18-28(32)44-36)46-40(50)24-15-11-8-12-16-24/h7-20H,5-6H2,1-4H3,(H,41,47)(H,42,48)(H,45,49)(H,46,50)",RVIBUAHWQKVQEF-UHFFFAOYSA-N,CCOc1cc2c(cc1NC(=O)c1ccccc1)Oc1c(NC(C)=O)c3c(c(NC(C)=O)c1=N2)Oc1cc(NC(=O)c2ccccc2)c(OCC)cc1N=3,-7.8613826501,0.0,1,G1,726.7460000000002,7.019400000000005,200.84179999999964,54.0,10.0,4.0,14.0,10.0,272.0,5.0,0.0,2.0,7.0,178.04,308.38790180501576,1.3910093744838976,2298.4315121317377
C-1216,"minoxidil;  2,4-diamino-6-piperidinopyrimidine 3-oxide","InChI=1S/C9H15N5O/c10-7-6-8(12-9(11)14(7)15)13-4-2-1-3-5-13/h6H,1-5,10H2,(H2,11,12)",ZFMITUMMTDLWHR-UHFFFAOYSA-N,Nc1cc(N2CCCCC2)nc(N)[n+]1[O-],-1.94,0.02,2,G3,209.25299999999993,-0.1303000000000006,58.08580000000002,15.0,5.0,2.0,6.0,1.0,82.0,1.0,1.0,1.0,2.0,95.11,88.08743730234193,2.2740250949268805,338.5154908716173
B-108,cevadine,"InChI=1S/C32H49NO9/c1-6-18(3)25(35)41-24-11-12-26(4)19-8-9-20-28(37)13-23(34)31(39)21(29(28,38)16-30(20,26)42-32(19,24)40)15-33-14-17(2)7-10-22(33)27(31,5)36/h6,17,19-24,34,36-40H,7-16H2,1-5H3/b18-6-/t17-,19-,20-,21-,22-,23-,24-,26-,27+,28+,29+,30+,31-,32-/m0/s1",DBUCFOVFALNEOO-HWBIYQLFSA-N,C/C=C(/C)C(=O)O[C@H]1CC[C@@]2(C)[C@@H]3CC[C@H]4[C@]5(O)C[C@H](O)[C@@]6(O)[C@@H](CN7C[C@@H](C)CC[C@H]7[C@@]6(C)O)[C@]5(O)C[C@@]42O[C@]13O,-3.0163,0.0,1,G1,591.7420000000003,0.9912000000000007,149.59479999999988,42.0,10.0,6.0,10.0,2.0,236.0,0.0,7.0,7.0,7.0,160.14999999999998,247.2358842096725,1.3208925754803786,1224.2834066582172
B-4322,pyrazolynate,"InChI=1S/C19H16Cl2N2O4S/c1-11-4-7-14(8-5-11)28(25,26)27-19-17(12(2)22-23(19)3)18(24)15-9-6-13(20)10-16(15)21/h4-10H,1-3H3",ASRAWSBMDXVNLX-UHFFFAOYSA-N,Cc1ccc(S(=O)(=O)Oc2c(C(=O)c3ccc(Cl)cc3Cl)c(C)nn2C)cc1,-6.8946,0.0,1,G1,439.32000000000016,4.342440000000003,106.83230000000002,28.0,6.0,0.0,9.0,5.0,146.0,3.0,0.0,0.0,3.0,78.26,172.3285954873309,2.060272558310196,1169.389462654349
B-4497,brucine,"InChI=1S/C23H26N2O4/c1-27-16-8-14-15(9-17(16)28-2)25-20(26)10-18-21-13-7-19-23(14,22(21)25)4-5-24(19)11-12(13)3-6-29-18/h3,8-9,13,18-19,21-22H,4-7,10-11H2,1-2H3/t13-,18?,19-,21-,22?,23+/m0/s1",RRKTZKIUPZVBMF-PLNGPGDESA-N,COc1cc2c(cc1OC)[C@@]13CCN4CC5=CCOC6CC(=O)N2C1[C@H]6[C@H]5C[C@H]43,-2.0909,0.0,1,G1,394.4710000000002,2.1097,106.51300000000003,29.0,5.0,0.0,6.0,2.0,152.0,1.0,4.0,6.0,7.0,51.239999999999995,169.93265423985088,1.5219335948756048,973.8696754699488
A-5028,"methyl 2-[(4-ethoxy-6-methylamino-1,3,5-triazin-2-yl)carbamoylsulfamoyl]benzoate","InChI=1S/C15H18N6O6S/c1-4-27-15-19-12(16-2)17-13(20-15)18-14(23)21-28(24,25)10-8-6-5-7-9(10)11(22)26-3/h5-8H,4H2,1-3H3,(H3,16,17,18,19,20,21,23)",ZINJLDJMHCUBIP-UHFFFAOYSA-N,CCOc1nc(NC)nc(NC(=O)NS(=O)(=O)c2ccccc2C(=O)OC)n1,-4.387910768899999,1.3883822021072465,8,G4,410.4120000000002,0.6089999999999994,97.66440000000004,28.0,10.0,3.0,13.0,7.0,150.0,2.0,0.0,0.0,2.0,161.5,160.2975910571207,2.235188890088708,980.7366749620384