ID,Name,InChI,InChIKey,SMILES,Solubility,SD,Occurrences,Group,MolWt,MolLogP,MolMR,HeavyAtomCount,NumHAcceptors,NumHDonors,NumHeteroatoms,NumRotatableBonds,NumValenceElectrons,NumAromaticRings,NumSaturatedRings,NumAliphaticRings,RingCount,TPSA,LabuteASA,BalabanJ,BertzCT
F-1095,2-methyl-4-(2-methylphenyl)diazenylaniline,"InChI=1S/C14H15N3/c1-10-5-3-4-6-14(10)17-16-12-7-8-13(15)11(2)9-12/h3-9H,15H2,1-2H3",PFRYFZZSECNQOL-UHFFFAOYSA-N,Cc1cc(N=Nc2ccccc2C)ccc1N,-4.05,0.22885,2,G3,225.295,4.301040000000002,70.94640000000003,17.0,3.0,1.0,3.0,2.0,86.0,2.0,0.0,0.0,2.0,50.739999999999995,101.00505009585603,2.2627258972121216,559.1438223871523
F-1096,"N,N-dimethyl-4-phenyldiazenylaniline","InChI=1S/C14H15N3/c1-17(2)14-10-8-13(9-11-14)16-15-12-6-4-3-5-7-12/h3-11H,1-2H3",JCYPECIVGRXBMO-UHFFFAOYSA-N,CN(C)c1ccc(N=Nc2ccccc2)cc1,-5.25,1.2489356357403782,3,G4,225.295,4.168000000000003,71.38700000000004,17.0,3.0,0.0,3.0,3.0,86.0,2.0,0.0,0.0,2.0,27.96,101.42499306904668,2.1154755667127603,486.6355887837592
F-1106,4-(4-dimethylaminophenyl)diazenylbenzenesulfonic acid,"InChI=1S/C14H15N3O3S/c1-17(2)13-7-3-11(4-8-13)15-16-12-5-9-14(10-6-12)21(18,19)20/h3-10H,1-2H3,(H,18,19,20)",IETWCRRCPURZOC-UHFFFAOYSA-N,CN(C)c1ccc(N=Nc2ccc(S(=O)(=O)O)cc2)cc1,-3.86,0.0,1,G1,305.359,3.4147000000000016,81.20160000000004,21.0,5.0,1.0,7.0,4.0,110.0,2.0,0.0,0.0,2.0,82.33,123.0536290790873,2.1372366639471676,736.0386295860372
F-1174,2-chloro-4-[(4-hydroxyphenyl)diazenyl]benzoic acid,"InChI=1S/C13H9ClN2O3/c14-12-7-9(3-6-11(12)13(18)19)16-15-8-1-4-10(17)5-2-8/h1-7,17H,(H,18,19)",AQQKGZJPWKEZJE-UHFFFAOYSA-N,O=C(O)c1ccc(N=Nc2ccc(O)cc2)cc1Cl,-2.62,0.0,1,G1,276.67900000000003,4.159200000000001,70.69410000000002,19.0,4.0,2.0,6.0,3.0,96.0,2.0,0.0,0.0,2.0,82.25,113.3534731157642,2.2156126534382174,638.8366309730286
F-1193,4-phenyldiazenylphenol,"InChI=1S/C12H10N2O/c15-12-8-6-11(7-9-12)14-13-10-4-2-1-3-5-10/h1-9,15H",BEYOBVMPDRKTNR-UHFFFAOYSA-N,Oc1ccc(N=Nc2ccccc2)cc1,-3.95,0.3050000000000001,2,G3,198.22500000000005,3.8076000000000025,58.72480000000003,15.0,3.0,1.0,3.0,2.0,74.0,2.0,0.0,0.0,2.0,44.95,87.7295089222461,2.1529892819390986,448.8081523848772
F-1194,"4-phenyldiazenylbenzene-1,3-diol","InChI=1S/C12H10N2O2/c15-10-6-7-11(12(16)8-10)14-13-9-4-2-1-3-5-9/h1-8,15-16H",BPTKLSBRRJFNHJ-UHFFFAOYSA-N,Oc1ccc(N=Nc2ccccc2)c(O)c1,-3.08,0.0250000000000001,2,G3,214.22400000000005,3.513200000000002,60.38960000000004,16.0,4.0,2.0,4.0,2.0,80.0,2.0,0.0,0.0,2.0,65.18,92.52374267444212,2.2421519865382917,509.682139382656
F-1196,4-[(4-hydroxyphenyl)diazenyl]benzoic acid,"InChI=1S/C13H10N2O3/c16-12-7-5-11(6-8-12)15-14-10-3-1-9(2-4-10)13(17)18/h1-8,16H,(H,17,18)",HLVCZTOFOWHIJZ-UHFFFAOYSA-N,O=C(O)c1ccc(N=Nc2ccc(O)cc2)cc1,-4.38,0.0,1,G1,242.23400000000004,3.5058000000000016,65.68410000000003,18.0,4.0,2.0,5.0,3.0,90.0,2.0,0.0,0.0,2.0,82.25,103.0502068888825,2.1329911792252636,574.1902812878075
F-1197,2-hydroxy-5-phenyldiazenylbenzoic acid,"InChI=1S/C13H10N2O3/c16-12-7-6-10(8-11(12)13(17)18)15-14-9-4-2-1-3-5-9/h1-8,16H,(H,17,18)",JHDYSXXPQIFFJZ-UHFFFAOYSA-N,O=C(O)c1cc(N=Nc2ccccc2)ccc1O,-3.05,0.0,1,G1,242.234,3.5058000000000016,65.68410000000003,18.0,4.0,2.0,5.0,3.0,90.0,2.0,0.0,0.0,2.0,82.25,103.05020688888251,2.27610010539682,594.4402812878076
F-995,"5-ethyl-8-oxo-[1,3]dioxolo[4,5-g]quinoline-7-carboxylic acid","InChI=1S/C13H11NO5/c1-2-14-5-8(13(16)17)12(15)7-3-10-11(4-9(7)14)19-6-18-10/h3-5H,2,6H2,1H3,(H,16,17)",KYGZCKSPAKDVKC-UHFFFAOYSA-N,CCn1cc(C(=O)O)c(=O)c2cc3c(cc21)OCO3,-4.38,0.2659500000000001,2,G3,261.23299999999995,1.4483,66.96430000000002,19.0,5.0,1.0,6.0,2.0,98.0,2.0,0.0,1.0,3.0,77.76,107.34099283412854,2.4291003376651457,746.7624788594737
H-11,Androstanedione  ,"InChI=1S/C19H28O2/c1-18-8-3-4-14(18)13-6-5-12-10-16(20)17(21)11-19(12,2)15(13)7-9-18/h12-15H,3-11H2,1-2H3",BVOKWOPQCAWSLV-UHFFFAOYSA-N,CC12CCCC1C1CCC3CC(=O)C(=O)CC3(C)C1CC2,-3.76,0.0,1,G1,288.43100000000004,4.167300000000004,81.74100000000006,21.0,2.0,0.0,2.0,0.0,116.0,0.0,4.0,4.0,4.0,34.14,127.60792867293914,1.6614698377565698,495.7948217925965
B-2235,"9-acridinol, 9,10-dihydro-10-methyl-9-phenyl-","InChI=1S/C20H17NO/c1-21-18-13-7-5-11-16(18)20(22,15-9-3-2-4-10-15)17-12-6-8-14-19(17)21/h2-14,22H,1H3",MILNADFLMJQLHM-UHFFFAOYSA-N,CN1c2ccccc2C(O)(c2ccccc2)c2ccccc21,-3.9031,0.0,1,G1,287.362,4.052100000000002,89.48980000000005,22.0,2.0,1.0,2.0,1.0,108.0,3.0,0.0,1.0,4.0,23.47,129.82371202928843,2.0932961792028797,778.3756173030993
A-435,N-(4-carbamoylphenyl)-4-methoxy-3-nitrobenzamide,"InChI=1S/C15H13N3O5/c1-23-13-7-4-10(8-12(13)18(21)22)15(20)17-11-5-2-9(3-6-11)14(16)19/h2-8H,1H3,(H2,16,19)(H,17,20)",JXHSJUAPWJKPLE-UHFFFAOYSA-N,COc1ccc(C(=O)Nc2ccc(C(N)=O)cc2)cc1[N+](=O)[O-],-4.6536052692,0.0,1,G1,315.2850000000001,1.9545999999999997,82.56150000000002,23.0,5.0,2.0,8.0,5.0,118.0,2.0,0.0,0.0,2.0,124.56,130.56264170146582,2.2165875826358943,771.1818581972366
A-1006,3-amino-4-methoxy-N-phenylbenzamide,"InChI=1S/C14H14N2O2/c1-18-13-8-7-10(9-12(13)15)14(17)16-11-5-3-2-4-6-11/h2-9H,15H2,1H3,(H,16,17)",LHMQDVIHBXWNII-UHFFFAOYSA-N,COc1ccc(C(=O)Nc2ccccc2)cc1N,-3.86580004,0.0,1,G1,242.278,2.529700000000001,71.80160000000002,18.0,3.0,2.0,4.0,3.0,92.0,2.0,0.0,0.0,2.0,64.35,105.38320176452562,2.1681398584185176,552.9753791161852
A-1119,N-(4-carbamoylphenyl)-4-nitrobenzamide,"InChI=1S/C14H11N3O4/c15-13(18)9-1-5-11(6-2-9)16-14(19)10-3-7-12(8-4-10)17(20)21/h1-8H,(H2,15,18)(H,16,19)",FANLHXKNWWSLIG-UHFFFAOYSA-N,NC(=O)c1ccc(NC(=O)c2ccc([N+](=O)[O-])cc2)cc1,-4.9367254155,0.0,1,G1,285.259,1.9459999999999995,76.0095,21.0,4.0,2.0,7.0,4.0,106.0,2.0,0.0,0.0,2.0,115.33,119.08415435756233,2.0983046308669966,693.1639887493035
A-1128,4-amino-N-(4-carbamoylphenyl)benzamide,"InChI=1S/C14H13N3O2/c15-11-5-1-10(2-6-11)14(19)17-12-7-3-9(4-8-12)13(16)18/h1-8H,15H2,(H2,16,18)(H,17,19)",FSPYMSUDIVFOHY-UHFFFAOYSA-N,NC(=O)c1ccc(NC(=O)c2ccc(N)cc2)cc1,-4.9156499936,0.0,1,G1,255.277,1.62,73.76750000000001,19.0,3.0,3.0,5.0,3.0,96.0,2.0,0.0,0.0,2.0,98.21,109.77106933207524,2.10094264836283,603.5931327965329
A-1411,4-methoxy-3-nitro-N-phenylbenzamide,"InChI=1S/C14H12N2O4/c1-20-13-8-7-10(9-12(13)16(18)19)14(17)15-11-5-3-2-4-6-11/h2-9H,1H3,(H,15,17)",YKOCPBMVMBUTAX-UHFFFAOYSA-N,COc1ccc(C(=O)Nc2ccccc2)cc1[N+](=O)[O-],-4.9878258088,0.0,1,G1,272.26,2.855700000000001,74.04360000000003,20.0,4.0,1.0,6.0,4.0,102.0,2.0,0.0,0.0,2.0,81.47,114.69628679001272,2.2656881588816344,640.8770925467024
A-1808,"N-(4-amino-2,5-diethoxyphenyl)benzamide","InChI=1S/C17H20N2O3/c1-3-21-15-11-14(16(22-4-2)10-13(15)18)19-17(20)12-8-6-5-7-9-12/h5-11H,3-4,18H2,1-2H3,(H,19,20)",CNXZLZNEIYFZGU-UHFFFAOYSA-N,CCOc1cc(NC(=O)c2ccccc2)c(OCC)cc1N,-2.4057571965,0.0,1,G1,300.35800000000006,3.318500000000001,87.58760000000004,22.0,4.0,2.0,5.0,6.0,116.0,2.0,0.0,0.0,2.0,73.58,129.59157333722231,2.307772870520781,641.8523518621994
A-2113,"methyl 2-amino-4-[(2,5-dichlorophenyl)carbamoyl]benzoate","InChI=1S/C15H12Cl2N2O3/c1-22-15(21)10-4-3-9(7-13(10)18)19-14(20)11-6-8(16)2-5-12(11)17/h2-7H,18H2,1H3,(H,19,20)",PDWBHZYCNIOXCB-UHFFFAOYSA-N,COC(=O)c1ccc(NC(=O)c2cc(Cl)ccc2Cl)cc1N,-5.7900649855,0.0,1,G1,339.17800000000005,3.6145000000000014,86.60910000000001,22.0,4.0,2.0,7.0,3.0,114.0,2.0,0.0,0.0,2.0,81.42,136.51619843272934,2.236680792383185,747.562573088626
A-2140,"methyl 4-[(2,5-dichlorophenyl)carbamoyl]-2-nitrobenzoate","InChI=1S/C15H10Cl2N2O5/c1-24-15(21)10-4-2-8(6-13(10)19(22)23)14(20)18-12-7-9(16)3-5-11(12)17/h2-7H,1H3,(H,18,20)",BVBSCSYCFCDVEU-UHFFFAOYSA-N,COC(=O)c1ccc(C(=O)Nc2cc(Cl)ccc2Cl)cc1[N+](=O)[O-],-5.965154646,0.0,1,G1,369.1600000000001,3.940500000000002,88.85110000000002,24.0,5.0,1.0,9.0,4.0,124.0,2.0,0.0,0.0,2.0,98.54,145.82928345821642,2.3613597422481107,838.609278412142
A-3793,sodium 4-[(3-amino-4-methylbenzoyl)amino]benzenesulfonate,"InChI=1S/C14H14N2O4S.Na/c1-9-2-3-10(8-13(9)15)14(17)16-11-4-6-12(7-5-11)21(18,19)20;/h2-8H,15H2,1H3,(H,16,17)(H,18,19,20);/q;+1/p-1",QJGAGCZWQGHNDW-UHFFFAOYSA-M,Cc1ccc(C(=O)Nc2ccc(S(=O)(=O)[O-])cc2)cc1N.[Na+],-0.9492775868,0.0,1,G1,328.32500000000005,-1.2623799999999985,77.94980000000002,22.0,5.0,2.0,8.0,3.0,110.0,2.0,0.0,0.0,2.0,112.32,150.31169216777138,2.4199981585097732e-06,788.9901782638013
A-4096,sodium 4-[(4-methyl-3-nitrobenzoyl)amino]benzenesulfonate,"InChI=1S/C14H12N2O6S.Na/c1-9-2-3-10(8-13(9)16(18)19)14(17)15-11-4-6-12(7-5-11)23(20,21)22;/h2-8H,1H3,(H,15,17)(H,20,21,22);/q;+1/p-1",YLDIMJOASVRWAO-UHFFFAOYSA-M,Cc1ccc(C(=O)Nc2ccc(S(=O)(=O)[O-])cc2)cc1[N+](=O)[O-].[Na+],-1.232035998,0.0,1,G1,358.3070000000001,-0.9363799999999988,80.19180000000003,24.0,6.0,1.0,10.0,4.0,120.0,2.0,0.0,0.0,2.0,129.44,159.62477719325844,2.879997446402329e-06,880.6377218500313
B-14,niclosamide,"InChI=1S/C13H8Cl2N2O4/c14-7-1-4-12(18)9(5-7)13(19)16-11-3-2-8(17(20)21)6-10(11)15/h1-6,18H,(H,16,19)",RJMUSRYZPJIFPJ-UHFFFAOYSA-N,O=C(Nc1ccc([N+](=O)[O-])cc1Cl)c1cc(Cl)ccc1O,-5.3106,0.6108175141198522,3,G4,327.1230000000001,3.8595000000000006,79.17640000000002,21.0,4.0,2.0,8.0,3.0,108.0,2.0,0.0,0.0,2.0,92.47,128.61856565206855,2.273996755552545,734.1063538201125
B-303,3'-methylphthalanilic acid,"InChI=1S/C15H13NO3/c1-10-5-4-6-11(9-10)16-14(17)12-7-2-3-8-13(12)15(18)19/h2-9H,1H3,(H,16,17)(H,18,19)",AZPJXONNBLOZFE-UHFFFAOYSA-N,Cc1cccc(NC(=O)c2ccccc2C(=O)O)c1,-2.407,0.0,1,G1,255.273,2.945520000000001,72.53350000000003,19.0,2.0,2.0,4.0,3.0,96.0,2.0,0.0,0.0,2.0,66.4,110.25046380464244,2.2795684071549243,634.7927427712117
B-1653,niclosamide ethanolamine salt,"InChI=1S/C13H8Cl2N2O4.C2H7NO/c14-7-1-4-12(18)9(5-7)13(19)16-11-3-2-8(17(20)21)6-10(11)15;3-1-2-4/h1-6,18H,(H,16,19);4H,1-3H2",XYCDHXSQODHSLG-UHFFFAOYSA-N,NCCO.O=C(Nc1ccc([N+](=O)[O-])cc1Cl)c1cc(Cl)ccc1O,-3.5891,0.0,1,G1,388.2070000000001,2.796900000000001,95.31660000000002,25.0,6.0,4.0,10.0,4.0,134.0,2.0,0.0,0.0,2.0,138.72000000000003,152.48840548359976,7.053570175180047e-07,768.8272024780714
B-1969,"benzamide, n-(3,4-dichlorophenyl)-n-[(dimethylam","InChI=1S/C16H14Cl2N2O2/c1-19(2)16(22)20(12-8-9-13(17)14(18)10-12)15(21)11-6-4-3-5-7-11/h3-10H,1-2H3",QQXXYTVEGCOZRF-UHFFFAOYSA-N,CN(C)C(=O)N(C(=O)c1ccccc1)c1ccc(Cl)c(Cl)c1,-4.3238,0.0,1,G1,337.206,4.321800000000003,88.79650000000002,22.0,2.0,0.0,6.0,2.0,114.0,2.0,0.0,0.0,2.0,40.620000000000005,138.39750977740502,2.49315358790122,702.5469234659056
B-2095,n-phenylphthalamic acid,"InChI=1S/C14H11NO3/c16-13(15-10-6-2-1-3-7-10)11-8-4-5-9-12(11)14(17)18/h1-9H,(H,15,16)(H,17,18)",DSUPUOGOCIFZBG-UHFFFAOYSA-N,O=C(O)c1ccccc1C(=O)Nc1ccccc1,-4.0814,0.0,1,G1,241.246,2.637100000000001,67.79650000000002,18.0,2.0,2.0,4.0,3.0,90.0,2.0,0.0,0.0,2.0,66.39999999999999,103.8855216902458,2.2708322641159984,578.6027923612364
B-2246,"salicylanilide, 4'-chloro-5-nitro-","InChI=1S/C13H9ClN2O4/c14-8-1-3-9(4-2-8)15-13(18)11-7-10(16(19)20)5-6-12(11)17/h1-7,17H,(H,15,18)",CDYKTFABNOULII-UHFFFAOYSA-N,O=C(Nc1ccc(Cl)cc1)c1cc([N+](=O)[O-])ccc1O,-5.122000000000001,0.0,1,G1,292.67800000000005,3.206100000000001,74.16640000000001,20.0,4.0,2.0,7.0,3.0,102.0,2.0,0.0,0.0,2.0,92.47,118.3152994251869,2.263316000336962,670.5714155925533
B-2247,"salicylanilide, 4'-chloro-3-nitro-","InChI=1S/C13H9ClN2O4/c14-8-4-6-9(7-5-8)15-13(18)10-2-1-3-11(12(10)17)16(19)20/h1-7,17H,(H,15,18)",UOHLBUBEMXVTMQ-UHFFFAOYSA-N,O=C(Nc1ccc(Cl)cc1)c1cccc([N+](=O)[O-])c1O,-4.5452,0.0,1,G1,292.678,3.206100000000001,74.16640000000001,20.0,4.0,2.0,7.0,3.0,102.0,2.0,0.0,0.0,2.0,92.47,118.31529942518692,2.2755438180360623,670.5714155925533
B-2458,"benzamide, 2-iodo-n-phenyl","InChI=1S/C13H10INO/c14-12-9-5-4-8-11(12)13(16)15-10-6-2-1-3-7-10/h1-9H,(H,15,16)",LJOZMWRYMKECFF-UHFFFAOYSA-N,O=C(Nc1ccccc1)c1ccccc1I,-4.2084,0.0,1,G1,323.13300000000004,3.5435000000000008,73.55420000000002,16.0,1.0,1.0,3.0,2.0,80.0,2.0,0.0,0.0,2.0,29.1,107.82666184465307,2.186811345762867,496.2955976569277
B-2494,"benzamide, 2,4-dichloro-n-hydroxy-n-phenyl-","InChI=1S/C13H9Cl2NO2/c14-9-6-7-11(12(15)8-9)13(17)16(18)10-4-2-1-3-5-10/h1-8,18H",HUOHOGDVFDYSTQ-UHFFFAOYSA-N,O=C(c1ccc(Cl)cc1Cl)N(O)c1ccccc1,-3.6723,0.0,1,G1,282.126,4.029400000000002,71.50000000000001,18.0,2.0,1.0,5.0,2.0,92.0,2.0,0.0,0.0,2.0,40.54,114.12959991564206,2.3157269710905455,572.4588567442288
B-2613,benzoylprop ethyl,"InChI=1S/C18H17Cl2NO3/c1-3-24-18(23)12(2)21(14-9-10-15(19)16(20)11-14)17(22)13-7-5-4-6-8-13/h4-12H,3H2,1-2H3",SLCGUGMPSUYJAY-UHFFFAOYSA-N,CCOC(=O)C(C)N(C(=O)c1ccccc1)c1ccc(Cl)c(Cl)c1,-4.2627,0.0,1,G1,366.24400000000014,4.591800000000004,95.80850000000004,24.0,3.0,0.0,6.0,5.0,126.0,2.0,0.0,0.0,2.0,46.61,150.4811055655018,2.4607081560570165,734.2986614084061
B-2720,"benzamide, 3,5-dinitro-n-phenyl-n-hydroxy-","InChI=1S/C13H9N3O6/c17-13(14(18)10-4-2-1-3-5-10)9-6-11(15(19)20)8-12(7-9)16(21)22/h1-8,18H",CHBUFRFETPYQCI-UHFFFAOYSA-N,O=C(c1cc([N+](=O)[O-])cc([N+](=O)[O-])c1)N(O)c1ccccc1,-3.6367,0.0,1,G1,303.23,2.5390000000000006,74.78880000000001,22.0,6.0,1.0,9.0,4.0,112.0,2.0,0.0,0.0,2.0,126.82000000000002,122.82901890687832,2.4459363196811,714.4455764164542
B-2824,"benzamide, n-hydroxy-2-iodo-n-phenyl-","InChI=1S/C13H10INO2/c14-12-9-5-4-8-11(12)13(16)15(17)10-6-2-1-3-7-10/h1-9,17H",STYDGEPZWWDNEI-UHFFFAOYSA-N,O=C(c1ccccc1I)N(O)c1ccccc1,-3.5304,0.0,1,G1,339.13199999999995,3.327200000000002,74.19700000000002,17.0,2.0,1.0,4.0,2.0,86.0,2.0,0.0,0.0,2.0,40.54,112.78490558292236,2.3037464741242686,527.9524885546249
B-2960,flamprop-isopropyl,"InChI=1S/C19H19ClFNO3/c1-12(2)25-19(24)13(3)22(15-9-10-17(21)16(20)11-15)18(23)14-7-5-4-6-8-14/h4-13H,1-3H3",IKVXBIIHQGXQRQ-UHFFFAOYSA-N,CC(C)OC(=O)C(C)N(C(=O)c1ccccc1)c1ccc(F)c(Cl)c1,-4.3056,0.0,1,G1,363.816,4.466000000000005,95.35150000000004,25.0,3.0,0.0,6.0,5.0,132.0,2.0,0.0,0.0,2.0,46.61,150.70831685594297,2.4507817228967568,764.5194513873407
B-2961,flamprop-methyl,"InChI=1S/C17H15ClFNO3/c1-11(17(22)23-2)20(13-8-9-15(19)14(18)10-13)16(21)12-6-4-3-5-7-12/h3-11H,1-2H3",RBNIGDFIUWJJEV-UHFFFAOYSA-N,COC(=O)C(C)N(C(=O)c1ccccc1)c1ccc(F)c(Cl)c1,-3.982,0.0,1,G1,335.76200000000006,3.687400000000003,86.13950000000003,23.0,3.0,0.0,6.0,4.0,120.0,2.0,0.0,0.0,2.0,46.61,137.97843262714974,2.4887313311616253,721.0333484678118
B-3004,mepronil,"InChI=1S/C17H19NO2/c1-12(2)20-15-9-6-8-14(11-15)18-17(19)16-10-5-4-7-13(16)3/h4-12H,1-3H3,(H,18,19)",BCTQJXQXJVLSIG-UHFFFAOYSA-N,Cc1ccccc1C(=O)Nc1cccc(OC(C)C)c1,-4.3265,0.0,1,G1,269.344,4.034520000000002,81.33820000000004,20.0,2.0,1.0,3.0,4.0,104.0,2.0,0.0,0.0,2.0,38.33,119.13813741070274,2.1387695562613644,605.4439286963352
B-3035,flamprop,"InChI=1S/C16H13ClFNO3/c1-10(16(21)22)19(12-7-8-14(18)13(17)9-12)15(20)11-5-3-2-4-6-11/h2-10H,1H3,(H,21,22)",YQVMVCCFZCMYQB-UHFFFAOYSA-N,CC(C(=O)O)N(C(=O)c1ccccc1)c1ccc(F)c(Cl)c1,-4.2474,0.0,1,G1,321.735,3.599000000000002,81.75930000000005,22.0,2.0,1.0,6.0,4.0,114.0,2.0,0.0,0.0,2.0,57.61000000000001,131.29417903544228,2.490807425739386,705.792035963742
B-3086,flamprop-m-methyl,"InChI=1S/C17H15ClFNO3/c1-11(17(22)23-2)20(13-8-9-15(19)14(18)10-13)16(21)12-6-4-3-5-7-12/h3-11H,1-2H3/t11-/m1/s1",RBNIGDFIUWJJEV-LLVKDONJSA-N,COC(=O)[C@@H](C)N(C(=O)c1ccccc1)c1ccc(F)c(Cl)c1,-4.3219,0.0,1,G1,335.76200000000006,3.687400000000003,86.13950000000003,23.0,3.0,0.0,6.0,4.0,120.0,2.0,0.0,0.0,2.0,46.61,137.97843262714974,2.4887313311616253,721.0333484678118
B-3087,flamprop-m-isopropyl,"InChI=1S/C19H19ClFNO3/c1-12(2)25-19(24)13(3)22(15-9-10-17(21)16(20)11-15)18(23)14-7-5-4-6-8-14/h4-13H,1-3H3/t13-/m1/s1",IKVXBIIHQGXQRQ-CYBMUJFWSA-N,CC(C)OC(=O)[C@@H](C)N(C(=O)c1ccccc1)c1ccc(F)c(Cl)c1,-4.4817,0.0,1,G1,363.816,4.466000000000005,95.35150000000004,25.0,3.0,0.0,6.0,5.0,132.0,2.0,0.0,0.0,2.0,46.61,150.70831685594297,2.4507817228967568,764.5194513873407
B-3111,flutolanil,"InChI=1S/C17H16F3NO2/c1-11(2)23-13-7-5-6-12(10-13)21-16(22)14-8-3-4-9-15(14)17(18,19)20/h3-11H,1-2H3,(H,21,22)",PTCGDEVVHUXTMP-UHFFFAOYSA-N,CC(C)Oc1cccc(NC(=O)c2ccccc2C(F)(F)F)c1,-4.6947,0.0823499999999999,2,G3,323.31399999999996,4.744900000000003,81.60320000000003,23.0,2.0,1.0,6.0,4.0,122.0,2.0,0.0,0.0,2.0,38.33,131.63474361948144,2.2346154896105133,696.2329895909495
B-3225,tecloftalam,"InChI=1S/C14H5Cl6NO3/c15-4-2-1-3-5(8(4)16)21-13(22)6-7(14(23)24)10(18)12(20)11(19)9(6)17/h1-3H,(H,21,22)(H,23,24)",ROZUQUDEWZIBHV-UHFFFAOYSA-N,O=C(O)c1c(Cl)c(Cl)c(Cl)c(Cl)c1C(=O)Nc1cccc(Cl)c1Cl,-4.5051,0.0,1,G1,447.91600000000017,6.5575,97.8565,24.0,2.0,2.0,10.0,3.0,126.0,2.0,0.0,0.0,2.0,66.39999999999999,165.70511905153586,2.6115974662863986,868.3187759496615
B-4439,salicylanilide,"InChI=1S/C13H11NO2/c15-12-9-5-4-8-11(12)13(16)14-10-6-2-1-3-7-10/h1-9,15H,(H,14,16)",WKEDVNSFRWHDNR-UHFFFAOYSA-N,O=C(Nc1ccccc1)c1ccccc1O,-3.5885,0.0,1,G1,213.236,2.6445000000000007,62.502000000000024,16.0,2.0,2.0,3.0,2.0,80.0,2.0,0.0,0.0,2.0,49.33,93.35905747580544,2.186811345762867,494.2955976569277
C-1002,xipamide,"InChI=1S/C15H15ClN2O4S/c1-8-4-3-5-9(2)14(8)18-15(20)10-6-13(23(17,21)22)11(16)7-12(10)19/h3-7,19H,1-2H3,(H,18,20)(H2,17,21,22)",MTZBBNMLMNBNJL-UHFFFAOYSA-N,Cc1cccc(C)c1NC(=O)c1cc(S(N)(=O)=O)c(Cl)cc1O,-3.9,0.0566999999999999,2,G3,354.8150000000001,2.562140000000001,88.35920000000002,23.0,4.0,3.0,8.0,3.0,122.0,2.0,0.0,0.0,2.0,109.48999999999998,138.4928745209081,2.481292347581099,874.3401567967136
C-2107,4-benzoylaminophenyl  acetate;  acetic acid 4-benzoylaminophenyl ester,"InChI=1S/C15H13NO3/c1-11(17)19-14-9-7-13(8-10-14)16-15(18)12-5-3-2-4-6-12/h2-10H,1H3,(H,16,18)",MBMANTPXLYUUGC-UHFFFAOYSA-N,CC(=O)Oc1ccc(NC(=O)c2ccccc2)cc1,-4.14,0.0,1,G1,255.273,2.864200000000001,72.14620000000004,19.0,3.0,1.0,4.0,3.0,96.0,2.0,0.0,0.0,2.0,55.4,110.5697752819533,2.0360515655810727,576.0994989211438
C-2290,acetic acid 4-(4-acetylaminobenzoylamino)phenyl ester,"InChI=1S/C17H16N2O4/c1-11(20)18-14-5-3-13(4-6-14)17(22)19-15-7-9-16(10-8-15)23-12(2)21/h3-10H,1-2H3,(H,18,20)(H,19,22)",MGJXRNWWFDAVMQ-UHFFFAOYSA-N,CC(=O)Nc1ccc(C(=O)Nc2ccc(OC(C)=O)cc2)cc1,-4.41,0.0,1,G1,312.32500000000005,2.8226000000000013,86.44990000000003,23.0,4.0,2.0,6.0,4.0,118.0,2.0,0.0,0.0,2.0,84.5,133.01104379439832,2.005071408717631,721.2635163368137
D-2087,"d-alaninic acid,","InChI=1S/C19H19ClFNO3/c1-12(2)25-19(24)13(3)22(15-9-10-17(21)16(20)11-15)18(23)14-7-5-4-6-8-14/h4-13H,1-3H3/t13-/m0/s1",IKVXBIIHQGXQRQ-ZDUSSCGKSA-N,CC(C)OC(=O)[C@H](C)N(C(=O)c1ccccc1)c1ccc(F)c(Cl)c1,-4.561,0.0396499999999999,2,G3,363.816,4.466000000000005,95.35150000000004,25.0,3.0,0.0,6.0,5.0,132.0,2.0,0.0,0.0,2.0,46.61,150.70831685594297,2.4507817228967568,764.5194513873407
F-412,2-[[4-(acetylsulfamoyl)phenyl]carbamoyl]benzoic acid,"InChI=1S/C16H14N2O6S/c1-10(19)18-25(23,24)12-8-6-11(7-9-12)17-15(20)13-4-2-3-5-14(13)16(21)22/h2-9H,1H3,(H,17,20)(H,18,19)(H,21,22)",SNWQKAWITMVCQW-UHFFFAOYSA-N,CC(=O)NS(=O)(=O)c1ccc(NC(=O)c2ccccc2C(=O)O)cc1,-2.52,0.0,1,G1,362.36300000000006,1.4619000000000002,88.79900000000002,25.0,5.0,3.0,9.0,5.0,130.0,2.0,0.0,0.0,2.0,129.64,143.08756609510593,2.2098230343017944,935.3522310151856
F-420,N-Hydroxy-N-phenylbenzamide,"InChI=1S/C13H11NO2/c15-13(11-7-3-1-4-8-11)14(16)12-9-5-2-6-10-12/h1-10,16H",YLYIXDZITBMCIW-UHFFFAOYSA-N,O=C(c1ccccc1)N(O)c1ccccc1,-2.73,0.0,1,G1,213.236,2.722600000000001,61.480000000000025,16.0,2.0,1.0,3.0,2.0,80.0,2.0,0.0,0.0,2.0,40.540000000000006,93.52306746187874,2.2393989303204465,467.8059718006981
F-559,N-(4-Chlorophenyl)-n-hydroxy-4-methylbenzamide,"InChI=1S/C14H12ClNO2/c1-10-2-4-11(5-3-10)14(17)16(18)13-8-6-12(15)7-9-13/h2-9,18H,1H3",IBCDULLCLULASH-UHFFFAOYSA-N,Cc1ccc(C(=O)N(O)c2ccc(Cl)cc2)cc1,-4.42,0.0,1,G1,261.708,3.684420000000002,71.22700000000003,18.0,2.0,1.0,4.0,2.0,92.0,2.0,0.0,0.0,2.0,40.540000000000006,110.191275803157,2.228964048698001,549.0116041712566
F-670,2-ethoxy-N-hydroxy-N-phenylbenzamide,"InChI=1S/C15H15NO3/c1-2-19-14-11-7-6-10-13(14)15(17)16(18)12-8-4-3-5-9-12/h3-11,18H,2H2,1H3",XWTBEINGILORHZ-UHFFFAOYSA-N,CCOc1ccccc1C(=O)N(O)c1ccccc1,-3.37,0.0,1,G1,257.28900000000004,3.1213000000000015,72.64900000000003,19.0,3.0,1.0,4.0,4.0,98.0,2.0,0.0,0.0,2.0,49.77,111.36649692017885,2.29200286366169,554.3269618203302