ID,Name,InChI,InChIKey,SMILES,Solubility,SD,Occurrences,Group,MolWt,MolLogP,MolMR,HeavyAtomCount,NumHAcceptors,NumHDonors,NumHeteroatoms,NumRotatableBonds,NumValenceElectrons,NumAromaticRings,NumSaturatedRings,NumAliphaticRings,RingCount,TPSA,LabuteASA,BalabanJ,BertzCT
F-96,"7,9-dihydro-3H-purine-2,6,8-trione","InChI=1S/C5H4N4O3/c10-3-1-2(7-4(11)6-1)8-5(12)9-3/h(H4,6,7,8,9,10,11,12)",LEHOTFFKMJEONL-UHFFFAOYSA-N,O=c1[nH]c(=O)c2[nH]c(=O)[nH]c2[nH]1,-3.62,0.2067758871338726,4,G5,168.112,-1.7672000000000003,40.16079999999999,12.0,3.0,4.0,7.0,0.0,62.0,2.0,0.0,0.0,2.0,114.36999999999998,63.46573831521731,3.183503280694596,582.7396315828356
F-266,"9-methyl-3,7-dihydropurine-2,6,8-trione","InChI=1S/C6H6N4O3/c1-10-3-2(7-6(10)13)4(11)9-5(12)8-3/h1H3,(H,7,13)(H2,8,9,11,12)",XJEJWDFDVPDMAS-UHFFFAOYSA-N,Cn1c(=O)[nH]c2c(=O)[nH]c(=O)[nH]c21,-3.94,0.0,1,G1,182.139,-1.7568,44.781099999999995,13.0,4.0,3.0,7.0,0.0,68.0,2.0,0.0,0.0,2.0,103.51,70.04065191620926,3.2151027662177287,625.592387259088
A-4788,6'-methoxycinchonan-9-ol,"InChI=1S/C20H24N2O2/c1-3-13-12-22-9-7-14(13)10-19(22)20(23)16-6-8-21-18-5-4-15(24-2)11-17(16)18/h3-6,8,11,13-14,19-20,23H,1,7,9-10,12H2,2H3/t13-,14-,19+,20-/m0/s1",LOUPRKONTZGTKE-LHHVKLHASA-N,C=C[C@H]1CN2CC[C@H]1C[C@@H]2[C@@H](O)c1ccnc2ccc(OC)cc12,-2.8121429702999996,0.27642098435,2,G3,324.4240000000001,3.173200000000002,95.02680000000004,24.0,4.0,1.0,4.0,4.0,126.0,2.0,3.0,3.0,5.0,45.59,142.3134262032049,1.6870853618182944,760.3873010425311
A-4872,cinchonan-9-ol,"InChI=1S/C19H22N2O/c1-2-13-12-21-10-8-14(13)11-18(21)19(22)16-7-9-20-17-6-4-3-5-15(16)17/h2-7,9,13-14,18-19,22H,1,8,10-12H2/t13-,14-,18+,19-/m0/s1",KMPWYEUPVWOPIM-QAMTZSDWSA-N,C=C[C@H]1CN2CC[C@H]1C[C@@H]2[C@@H](O)c1ccnc2ccccc12,-3.0887236136,0.0,1,G1,294.398,3.164600000000002,88.47480000000004,22.0,3.0,1.0,3.0,3.0,114.0,2.0,3.0,3.0,5.0,36.36,130.83493885930145,1.6692310274474265,693.3995911118029
C-1309,allopurin-2-yl-methyl  butyrate;  2-(butanoyloxymethyl)allopurinol,"InChI=1S/C10H12N4O3/c1-2-3-8(15)17-6-14-4-7-9(13-14)11-5-12-10(7)16/h4-5H,2-3,6H2,1H3,(H,11,12,13,16)",BKEJTAUUSZULEO-UHFFFAOYSA-N,CCCC(=O)OCn1cc2c(=O)[nH]cnc2n1,-2.2,0.0,1,G1,236.231,0.4203999999999999,59.14870000000002,17.0,6.0,1.0,7.0,4.0,90.0,2.0,0.0,0.0,2.0,89.87,96.42089707166348,2.122926686639411,586.4936898575353
C-1320,2-(pivaloyloxymethyl)allopurinol,"InChI=1S/C11H14N4O3/c1-11(2,3)10(17)18-6-15-4-7-8(14-15)12-5-13-9(7)16/h4-5H,6H2,1-3H3,(H,12,13,14,16)",WLATWLPHXIPYFO-UHFFFAOYSA-N,CC(C)(C)C(=O)OCn1cc2c(=O)[nH]cnc2n1,-2.17,0.0,1,G1,250.258,0.6663999999999999,63.695700000000016,18.0,6.0,1.0,7.0,2.0,96.0,2.0,0.0,0.0,2.0,89.87,102.7858391860601,2.1633774213140544,635.5111231528592
C-1388,"2,5-bis(acetoxymethyl)allopurinol","InChI=1S/C11H12N4O5/c1-7(16)19-5-14-4-12-10-9(11(14)18)3-15(13-10)6-20-8(2)17/h3-4H,5-6H2,1-2H3",DHIFEVBBJSAIAC-UHFFFAOYSA-N,CC(=O)OCn1cc2c(=O)n(COC(C)=O)cnc2n1,-1.99,0.0,1,G1,280.24,-0.3658000000000005,65.32000000000002,20.0,9.0,0.0,9.0,4.0,106.0,2.0,0.0,0.0,2.0,105.31,112.27087800220608,2.2791856539834896,717.1620504277267
C-1427,"2,5-bis(butanoyloxymethyl)allopurinol","InChI=1S/C15H20N4O5/c1-3-5-12(20)23-9-18-8-16-14-11(15(18)22)7-19(17-14)10-24-13(21)6-4-2/h7-8H,3-6,9-10H2,1-2H3",PYKOSNOHCYDWPP-UHFFFAOYSA-N,CCCC(=O)OCn1cc2c(=O)n(COC(=O)CCC)cnc2n1,-3.55,0.0,1,G1,336.348,1.1945999999999994,83.78800000000004,24.0,9.0,0.0,9.0,8.0,130.0,2.0,0.0,0.0,2.0,105.31,137.73064645979255,2.09040525583507,779.7526586855129
C-1435,"2,5-bis(pivaloyloxymethyl)allopurinol","InChI=1S/C17H24N4O5/c1-16(2,3)14(23)25-9-20-8-18-12-11(13(20)22)7-21(19-12)10-26-15(24)17(4,5)6/h7-8H,9-10H2,1-6H3",IOFJWHCIWURTCZ-UHFFFAOYSA-N,CC(C)(C)C(=O)OCn1cc2c(=O)n(COC(=O)C(C)(C)C)cnc2n1,-3.91,0.0,1,G1,364.4020000000001,1.6865999999999994,92.88200000000003,26.0,9.0,0.0,9.0,4.0,142.0,2.0,0.0,0.0,2.0,105.31,150.46053068858578,2.1505038422030225,883.1610063218609
E-886,Cytisine,"InChI=1S/C11H14N2O/c14-11-3-1-2-10-9-4-8(5-12-6-9)7-13(10)11/h1-3,8-9,12H,4-7H2",ANJTVLIZGCUXLD-UHFFFAOYSA-N,O=c1cccc2n1CC1CNCC2C1,0.36,0.0,1,G1,190.246,0.5549999999999997,54.41970000000003,14.0,3.0,1.0,3.0,0.0,74.0,1.0,1.0,2.0,3.0,34.03,82.75039725001179,2.1469341613539945,409.9937128941546
B-3513,isoxaflutole,"InChI=1S/C15H12F3NO4S/c1-24(21,22)12-6-9(15(16,17)18)4-5-10(12)13(20)11-7-19-23-14(11)8-2-3-8/h4-8H,2-3H2,1H3",OYIKARCXOQLFHF-UHFFFAOYSA-N,CS(=O)(=O)c1cc(C(F)(F)F)ccc1C(=O)c1cnoc1C1CC1,-4.7631,0.0,1,G1,359.32500000000005,3.205300000000002,76.46430000000002,24.0,5.0,0.0,9.0,4.0,128.0,2.0,1.0,1.0,3.0,77.24,134.92117909981312,2.129294423184917,911.0406501389998
C-1513,bromofenoxim,"InChI=1S/C13H7Br2N3O6/c14-9-3-7(4-10(15)13(9)19)6-16-24-12-2-1-8(17(20)21)5-11(12)18(22)23/h1-6,19H/b16-6+",XTFNPKDYCLFGPV-OMCISZLKSA-N,O=[N+]([O-])c1ccc(O/N=C/c2cc(Br)c(O)c(Br)c2)c([N+](=O)[O-])c1,-5.19,0.0,1,G1,461.0220000000001,4.146500000000002,91.47960000000002,24.0,7.0,1.0,11.0,5.0,124.0,2.0,0.0,0.0,2.0,128.10000000000002,150.6516260632809,2.2538371721869397,832.5909430558812
A-3496,"4-methyl-1,3-oxazole-5-carbonitrile","InChI=1S/C5H4N2O/c1-4-5(2-6)8-3-7-4/h3H,1H3",JZSLPQXOLZCAME-UHFFFAOYSA-N,Cc1ncoc1C#N,-0.324555733,0.0,1,G1,108.1,0.8547,25.955,8.0,3.0,0.0,3.0,0.0,40.0,1.0,0.0,0.0,1.0,49.82,46.56784427478224,3.154803644271227,220.5776960435723
A-2299,"8,8-dimethyl-7-propan-2-yl-6,10-dioxaspiro[4.5]decane","InChI=1S/C13H24O2/c1-10(2)11-12(3,4)9-14-13(15-11)7-5-6-8-13/h10-11H,5-9H2,1-4H3",NKDJGNROVOPIGT-UHFFFAOYSA-N,CC(C)C1OC2(CCCC2)OCC1(C)C,-3.5242437705,0.0,1,G1,212.33299999999997,3.354300000000002,60.64300000000005,15.0,2.0,0.0,2.0,1.0,88.0,0.0,2.0,2.0,2.0,18.46,93.33398455254417,2.1208837104490783,226.69045208702977
A-2483,2-[(2-cyanoethyl)[4-[(6-nitrobenzothiazol-2-yl)azo]phenyl]amino]ethyl acetate,"InChI=1S/C20H18N6O4S/c1-14(27)30-12-11-25(10-2-9-21)16-5-3-15(4-6-16)23-24-20-22-18-8-7-17(26(28)29)13-19(18)31-20/h3-8,13H,2,10-12H2,1H3",ZNUBBVSUTSNSIM-UHFFFAOYSA-N,CC(=O)OCCN(CCC#N)c1ccc(N=Nc2nc3ccc([N+](=O)[O-])cc3s2)cc1,-4.3409088982999995,0.7310955508500001,2,G2,438.4690000000002,4.9030800000000045,115.96840000000005,31.0,10.0,0.0,11.0,9.0,158.0,3.0,0.0,0.0,3.0,134.08,181.11200215764208,1.6990778550605283,1152.6816072876818
C-2082,thebaine,"InChI=1S/C19H21NO3/c1-20-9-8-19-12-5-7-15(22-3)18(19)23-17-14(21-2)6-4-11(16(17)19)10-13(12)20/h4-7,13,18H,8-10H2,1-3H3",FQXXSQDCDRQNQE-UHFFFAOYSA-N,COC1=CC=C2C3Cc4ccc(OC)c5c4C2(CCN3C)C1O5,-2.66,0.0,1,G1,311.3810000000001,2.4245,87.00200000000005,23.0,4.0,0.0,4.0,2.0,120.0,1.0,1.0,4.0,5.0,30.93,135.87358928689147,1.8394502227694605,766.1233848323809
A-2715,"N,N'-bis(2,6-diisopropylphenyl)carbodiimide","InChI=1S/C25H34N2/c1-16(2)20-11-9-12-21(17(3)4)24(20)26-15-27-25-22(18(5)6)13-10-14-23(25)19(7)8/h9-14,16-19H,1-8H3",XLDBGFGREOMWSL-UHFFFAOYSA-N,CC(C)c1cccc(C(C)C)c1N=C=Nc1c(C(C)C)cccc1C(C)C,-6.8604110817,0.0,1,G1,362.5610000000001,8.317300000000005,118.42300000000006,27.0,2.0,0.0,2.0,6.0,144.0,2.0,0.0,0.0,2.0,24.72,165.02338978443717,2.617446895442971,715.3975276681869
B-315,pyrolan,"InChI=1S/C13H15N3O2/c1-10-9-12(18-13(17)15(2)3)16(14-10)11-7-5-4-6-8-11/h4-9H,1-3H3",GEDIWDLJKRKBFT-UHFFFAOYSA-N,Cc1cc(OC(=O)N(C)C)n(-c2ccccc2)n1,-2.0886,0.0,1,G1,245.282,2.2411200000000004,68.01200000000003,18.0,4.0,0.0,5.0,2.0,94.0,2.0,0.0,0.0,2.0,47.36000000000001,105.59040023986232,2.346473820907022,546.6189292272288
B-1483,"1-ph-3,5-dime-4-nitrosopyrazole","InChI=1S/C11H11N3O/c1-8-11(13-15)9(2)14(12-8)10-6-4-3-5-7-10/h3-7H,1-2H3",SCHFUNOUOHIHSX-UHFFFAOYSA-N,Cc1nn(-c2ccccc2)c(C)c1N=O,-3.7355,0.0,1,G1,201.22899999999996,2.8870400000000016,58.49300000000002,15.0,4.0,0.0,4.0,2.0,76.0,2.0,0.0,0.0,2.0,47.25,87.52034699554554,2.5990816045647405,488.0341831446437
B-1594,"1h-pyrazol-4-ol, 1-phenyl-","InChI=1S/C9H8N2O/c12-9-6-10-11(7-9)8-4-2-1-3-5-8/h1-7,12H",PAIIFXHEHLRVNC-UHFFFAOYSA-N,Oc1cnn(-c2ccccc2)c1,-1.9616,0.0,1,G1,160.176,1.5779,45.22880000000002,12.0,3.0,1.0,3.0,1.0,60.0,2.0,0.0,0.0,2.0,38.05,69.88996453471786,2.4450102492957595,367.0273776360866
B-1620,"1h-pyrazol-5-amine, 3-methyl-1-phenyl-","InChI=1S/C10H11N3/c1-8-7-10(11)13(12-8)9-5-3-2-4-6-9/h2-7H,11H2,1H3",FMKMKBLHMONXJM-UHFFFAOYSA-N,Cc1cc(N)n(-c2ccccc2)n1,-0.9376,0.0,1,G1,173.21900000000005,1.7629199999999998,52.713400000000014,13.0,3.0,1.0,3.0,1.0,66.0,2.0,0.0,0.0,2.0,43.84,76.80056359393117,2.52646374475782,403.36313675943944
B-2919,"1h-pyrazol-5-amine, 3,4-dimethyl-1-phenyl-","InChI=1S/C11H13N3/c1-8-9(2)13-14(11(8)12)10-6-4-3-5-7-10/h3-7H,12H2,1-2H3",PUAVVYSZRNWCGP-UHFFFAOYSA-N,Cc1nn(-c2ccccc2)c(N)c1C,-1.6704,0.0,1,G1,187.24599999999995,2.07134,57.45040000000002,14.0,3.0,1.0,3.0,1.0,72.0,2.0,0.0,0.0,2.0,43.84,83.16550570832777,2.581484406768721,443.05624557136855
B-3239,pyraclofos,"InChI=1S/C14H18ClN2O3PS/c1-3-9-22-21(18,19-4-2)20-14-10-16-17(11-14)13-7-5-12(15)6-8-13/h5-8,10-11H,3-4,9H2,1-2H3",QHGVXILFMXYDRS-UHFFFAOYSA-N,CCCSP(=O)(OCC)Oc1cnn(-c2ccc(Cl)cc2)c1,-4.0388,0.0,1,G1,360.803,5.192300000000004,91.18350000000004,22.0,6.0,0.0,8.0,8.0,120.0,2.0,0.0,0.0,2.0,53.35,138.7854331052319,2.1246822139760635,647.7924362052639
B-3470,fipronil,"InChI=1S/C12H4Cl2F6N4OS/c13-5-1-4(11(15,16)17)2-6(14)8(5)24-10(22)9(7(3-21)23-24)26(25)12(18,19)20/h1-2H,22H2",ZOCSXAVNDGMNBV-UHFFFAOYSA-N,N#Cc1nn(-c2c(Cl)cc(C(F)(F)F)cc2Cl)c(N)c1S(=O)C(F)(F)F,-5.3619,0.0,1,G1,437.152,4.279179999999999,80.1768,26.0,5.0,1.0,14.0,2.0,140.0,2.0,0.0,0.0,2.0,84.69999999999999,152.89702657908978,2.745101436315436,923.9031183120674
B-3365,sulcotrione,"InChI=1S/C14H13ClO5S/c1-21(19,20)8-5-6-9(10(15)7-8)14(18)13-11(16)3-2-4-12(13)17/h5-7,13H,2-4H2,1H3",PQTBTIFWAXVEPB-UHFFFAOYSA-N,CS(=O)(=O)c1ccc(C(=O)C2C(=O)CCCC2=O)c(Cl)c1,-3.2994,0.0,1,G1,328.7730000000002,1.8645000000000005,76.24730000000002,21.0,5.0,0.0,7.0,3.0,112.0,1.0,1.0,1.0,2.0,85.35,126.7583397899402,2.400758783594129,719.7313040420308
C-2586,kni-272;  kynostatin,"InChI=1S/C33H41N5O6S2/c1-33(2,3)37-31(42)26-19-46-20-38(26)32(43)29(40)24(15-21-9-6-5-7-10-21)36-30(41)25(18-45-4)35-28(39)17-44-27-12-8-11-22-16-34-14-13-23(22)27/h5-14,16,24-26,29,40H,15,17-20H2,1-4H3,(H,35,39)(H,36,41)(H,37,42)",NJBBLOIWMSYVCQ-UHFFFAOYSA-N,CSCC(NC(=O)COc1cccc2cnccc12)C(=O)NC(Cc1ccccc1)C(O)C(=O)N1CSCC1C(=O)NC(C)(C)C,-3.95,0.0,1,G1,667.854,2.3659999999999997,181.48889999999955,46.0,9.0,4.0,13.0,13.0,246.0,3.0,1.0,1.0,4.0,149.96,277.16244439748823,1.4576157281011268,1513.9135119602165
C-2494,aztreonam,"InChI=1S/C13H17N5O8S2/c1-5-7(10(20)18(5)28(23,24)25)16-9(19)8(6-4-27-12(14)15-6)17-26-13(2,3)11(21)22/h4-5,7H,1-3H3,(H2,14,15)(H,16,19)(H,21,22)(H,23,24,25)/b17-8-",WZPBZJONDBGPKJ-IUXPMGMMSA-N,CC1C(NC(=O)/C(=N\OC(C)(C)C(=O)O)c2csc(N)n2)C(=O)N1S(=O)(=O)O,-1.64,0.0,1,G1,435.44000000000017,-1.172499999999998,95.65050000000004,28.0,10.0,4.0,15.0,7.0,154.0,1.0,1.0,1.0,2.0,201.58,162.59031069995737,2.2592762983237704,953.8851353067348
F-985,7-(3-aminoazetidin-1-yl)-1-cyclopropyl-6-fluoro-4-oxoquinoline-3-carboxylic acid,"InChI=1S/C16H16FN3O3/c17-12-3-10-13(4-14(12)19-5-8(18)6-19)20(9-1-2-9)7-11(15(10)21)16(22)23/h3-4,7-9H,1-2,5-6,18H2,(H,22,23)",CTJMNBROBOZHAP-UHFFFAOYSA-N,NC1CN(c2cc3c(cc2F)c(=O)c(C(=O)O)cn3C2CC2)C1,-5.32,0.0,1,G1,317.32000000000005,1.3209999999999995,83.58470000000003,23.0,5.0,2.0,7.0,3.0,120.0,2.0,2.0,2.0,4.0,88.56,130.46815733491766,1.9645465736520993,882.2499501701312
F-986,1-cyclopropyl-6-fluoro-7-(3-methylaminoazetidin-1-yl)-4-oxoquinoline-3-carboxylic acid,"InChI=1S/C17H18FN3O3/c1-19-9-6-20(7-9)15-5-14-11(4-13(15)18)16(22)12(17(23)24)8-21(14)10-2-3-10/h4-5,8-10,19H,2-3,6-7H2,1H3,(H,23,24)",XDLPWPNVUPKKSN-UHFFFAOYSA-N,CNC1CN(c2cc3c(cc2F)c(=O)c(C(=O)O)cn3C2CC2)C1,-5.41,0.0,1,G1,331.3470000000001,1.5816999999999997,88.45700000000002,24.0,5.0,2.0,7.0,4.0,126.0,2.0,2.0,2.0,4.0,74.57,137.0430709359096,1.8955391711345335,898.0694016866089
F-987,7-(3-amino-3-methylazetidin-1-yl)-1-cyclopropyl-6-fluoro-4-oxoquinoline-3-carboxylic acid,"InChI=1S/C17H18FN3O3/c1-17(19)7-20(8-17)14-5-13-10(4-12(14)18)15(22)11(16(23)24)6-21(13)9-2-3-9/h4-6,9H,2-3,7-8,19H2,1H3,(H,23,24)",UAYYWDWWESZIPA-UHFFFAOYSA-N,CC1(N)CN(c2cc3c(cc2F)c(=O)c(C(=O)O)cn3C2CC2)C1,-5.62,0.0,1,G1,331.3470000000001,1.7110999999999998,88.20170000000002,24.0,5.0,2.0,7.0,3.0,126.0,2.0,2.0,2.0,4.0,88.56,136.8330994493143,1.9279943214753128,922.803178998449
F-988,7-(3-amino-3-methylazetidin-1-yl)-8-chloro-1-cyclopropyl-6-fluoro-4-oxoquinoline-3-carboxylic acid,"InChI=1S/C17H17ClFN3O3/c1-17(20)6-21(7-17)14-11(19)4-9-13(12(14)18)22(8-2-3-8)5-10(15(9)23)16(24)25/h4-5,8H,2-3,6-7,20H2,1H3,(H,24,25)",DUNZFXZSFJLIKR-UHFFFAOYSA-N,CC1(N)CN(c2c(F)cc3c(=O)c(C(=O)O)cn(C4CC4)c3c2Cl)C1,-5.33,0.0,1,G1,365.7920000000001,2.3645000000000005,93.21170000000002,25.0,5.0,2.0,8.0,3.0,132.0,2.0,2.0,2.0,4.0,88.56,147.13636567619596,2.001397573121141,973.4875088520496
F-989,"5-amino-7-(3-amino-3-methylazetidin-1-yl)-1-cyclopropyl-6,8-difluoro-4-oxoquinoline-3-carboxylic acid","InChI=1S/C17H18F2N4O3/c1-17(21)5-22(6-17)14-10(18)12(20)9-13(11(14)19)23(7-2-3-7)4-8(15(9)24)16(25)26/h4,7H,2-3,5-6,20-21H2,1H3,(H,25,26)",WXMYDHQMJVPNTD-UHFFFAOYSA-N,CC1(N)CN(c2c(F)c(N)c3c(=O)c(C(=O)O)cn(C4CC4)c3c2F)C1,-4.38,0.0,1,G1,364.35200000000015,1.4324,92.57210000000003,26.0,6.0,3.0,9.0,3.0,138.0,2.0,2.0,2.0,4.0,114.58,146.33852554925323,2.067858121955095,1019.31066175418
F-991,"7-(3-aminoazetidin-1-yl)-1-cyclopropyl-6,8-difluoro-4-oxoquinoline-3-carboxylic acid","InChI=1S/C16H15F2N3O3/c17-11-3-9-13(12(18)14(11)20-4-7(19)5-20)21(8-1-2-8)6-10(15(9)22)16(23)24/h3,6-8H,1-2,4-5,19H2,(H,23,24)",IKZBNCORGKYEDZ-UHFFFAOYSA-N,NC1CN(c2c(F)cc3c(=O)c(C(=O)O)cn(C4CC4)c3c2F)C1,-5.27,0.0,1,G1,335.3100000000001,1.4601,83.54270000000002,24.0,5.0,2.0,8.0,3.0,126.0,2.0,2.0,2.0,4.0,88.56,134.63369273784392,2.037331460979619,930.5351597975412
F-993,"7-(3-amino-3-methylazetidin-1-yl)-1-cyclopropyl-6,8-difluoro-4-oxoquinoline-3-carboxylic acid","InChI=1S/C17H17F2N3O3/c1-17(20)6-21(7-17)14-11(18)4-9-13(12(14)19)22(8-2-3-8)5-10(15(9)23)16(24)25/h4-5,8H,2-3,6-7,20H2,1H3,(H,24,25)",FEMZVDSBIXDODB-UHFFFAOYSA-N,CC1(N)CN(c2c(F)cc3c(=O)c(C(=O)O)cn(C4CC4)c3c2F)C1,-5.64,0.0,1,G1,349.3370000000001,1.8502,88.15970000000002,25.0,5.0,2.0,8.0,3.0,132.0,2.0,2.0,2.0,4.0,88.56,140.9986348522405,2.001397573121141,971.4875088520496
F-994,"1-cyclopropyl-6,8-difluoro-7-(3-methylaminoazetidin-1-yl)-4-oxoquinoline-3-carboxylic acid","InChI=1S/C17H17F2N3O3/c1-20-8-5-21(6-8)15-12(18)4-10-14(13(15)19)22(9-2-3-9)7-11(16(10)23)17(24)25/h4,7-9,20H,2-3,5-6H2,1H3,(H,24,25)",QSNYNWOQOIJCFV-UHFFFAOYSA-N,CNC1CN(c2c(F)cc3c(=O)c(C(=O)O)cn(C4CC4)c3c2F)C1,-5.31,0.0,1,G1,349.3370000000001,1.7208,88.41500000000002,25.0,5.0,2.0,8.0,4.0,132.0,2.0,2.0,2.0,4.0,74.57,141.20860633883584,1.9688466703673233,946.5292194514634
F-1080,7-(3-amino-2-ethylazetidin-1-yl)-1-cyclopropyl-6-fluoro-4-oxoquinoline-3-carboxylic acid,"InChI=1S/C18H20FN3O3/c1-2-14-13(20)8-22(14)16-6-15-10(5-12(16)19)17(23)11(18(24)25)7-21(15)9-3-4-9/h5-7,9,13-14H,2-4,8,20H2,1H3,(H,24,25)",BRPOVUNVTUCYNN-UHFFFAOYSA-N,CCC1C(N)CN1c1cc2c(cc1F)c(=O)c(C(=O)O)cn2C1CC1,-3.91,0.0,1,G1,345.3740000000001,2.0995999999999997,92.79670000000004,25.0,5.0,2.0,7.0,4.0,132.0,2.0,2.0,2.0,4.0,88.56,143.19804156371092,1.9313508531995829,935.2887020008036
F-1081,1-cyclopropyl-6-fluoro-7-(2-methyl-3-methylaminoazetidin-1-yl)-4-oxoquinoline-3-carboxylic acid,"InChI=1S/C18H20FN3O3/c1-9-14(20-2)8-21(9)16-6-15-11(5-13(16)19)17(23)12(18(24)25)7-22(15)10-3-4-10/h5-7,9-10,14,20H,3-4,8H2,1-2H3,(H,24,25)",CFCYTEUETQNNHM-UHFFFAOYSA-N,CNC1CN(c2cc3c(cc2F)c(=O)c(C(=O)O)cn3C2CC2)C1C,-4.57,0.0,1,G1,345.3740000000001,1.9701999999999995,93.05200000000002,25.0,5.0,2.0,7.0,4.0,132.0,2.0,2.0,2.0,4.0,74.57,143.4080130503062,1.9043817554195492,935.2887020008036
F-1082,"7-(3-amino-2,3-dimethylazetidin-1-yl)-1-cyclopropyl-6-fluoro-4-oxoquinoline-3-carboxylic acid","InChI=1S/C18H20FN3O3/c1-9-18(2,20)8-22(9)15-6-14-11(5-13(15)19)16(23)12(17(24)25)7-21(14)10-3-4-10/h5-7,9-10H,3-4,8,20H2,1-2H3,(H,24,25)",VBCIDRUAFSBLGA-UHFFFAOYSA-N,CC1N(c2cc3c(cc2F)c(=O)c(C(=O)O)cn3C2CC2)CC1(C)N,-5.42,0.0,1,G1,345.37400000000014,2.0996,92.79670000000004,25.0,5.0,2.0,7.0,3.0,132.0,2.0,2.0,2.0,4.0,88.56,143.19804156371092,1.9354234143848308,962.1731203719594
F-1083,7-(3-amino-2-methylazetidin-1-yl)-8-chloro-1-cyclopropyl-6-fluoro-4-oxoquinoline-3-carboxylic acid,"InChI=1S/C17H17ClFN3O3/c1-7-12(20)6-21(7)15-11(19)4-9-14(13(15)18)22(8-2-3-8)5-10(16(9)23)17(24)25/h4-5,7-8,12H,2-3,6,20H2,1H3,(H,24,25)",FGAPXYWEQVSGDJ-UHFFFAOYSA-N,CC1C(N)CN1c1c(F)cc2c(=O)c(C(=O)O)cn(C3CC3)c2c1Cl,-4.48,0.0,1,G1,365.79200000000014,2.3629,93.18970000000002,25.0,5.0,2.0,8.0,3.0,132.0,2.0,2.0,2.0,4.0,88.56,147.13636567619596,2.032954972398826,969.9900145945018
F-1084,"5-amino-7-(3-amino-2-methylazetidin-1-yl)-1-cyclopropyl-6,8-difluoro-4-oxoquinoline-3-carboxylic acid","InChI=1S/C17H18F2N4O3/c1-6-9(20)5-22(6)15-11(18)13(21)10-14(12(15)19)23(7-2-3-7)4-8(16(10)24)17(25)26/h4,6-7,9H,2-3,5,20-21H2,1H3,(H,25,26)",KCDGHRIKVMOLKL-UHFFFAOYSA-N,CC1C(N)CN1c1c(F)c(N)c2c(=O)c(C(=O)O)cn(C3CC3)c2c1F,-3.98,0.0,1,G1,364.35200000000015,1.4307999999999998,92.55010000000004,26.0,6.0,3.0,9.0,3.0,138.0,2.0,2.0,2.0,4.0,114.58,146.33852554925326,2.0994478348270467,1015.7057903774884
F-1085,"1-cyclopropyl-6,8-difluoro-7-(2-methyl-3-methylaminoazetidin-1-yl)-4-oxoquinoline-3-carboxylic acid","InChI=1S/C18H19F2N3O3/c1-8-13(21-2)7-22(8)16-12(19)5-10-15(14(16)20)23(9-3-4-9)6-11(17(10)24)18(25)26/h5-6,8-9,13,21H,3-4,7H2,1-2H3,(H,25,26)",ICEUMJPAMUZPEV-UHFFFAOYSA-N,CNC1CN(c2c(F)cc3c(=O)c(C(=O)O)cn(C4CC4)c3c2F)C1C,-4.44,0.0,1,G1,363.3640000000001,2.1093,93.01000000000002,26.0,5.0,2.0,8.0,4.0,138.0,2.0,2.0,2.0,4.0,74.57,147.57354845323246,1.97784158967874,984.0307550546438
F-1086,"7-(3-amino-2-ethylazetidin-1-yl)-1-cyclopropyl-6,8-difluoro-4-oxoquinoline-3-carboxylic acid","InChI=1S/C18H19F2N3O3/c1-2-13-12(21)7-23(13)16-11(19)5-9-15(14(16)20)22(8-3-4-8)6-10(17(9)24)18(25)26/h5-6,8,12-13H,2-4,7,21H2,1H3,(H,25,26)",IIVDVROKGKVRAD-UHFFFAOYSA-N,CCC1C(N)CN1c1c(F)cc2c(=O)c(C(=O)O)cn(C3CC3)c2c1F,-3.81,0.0,1,G1,363.3640000000001,2.2386999999999997,92.75470000000004,26.0,5.0,2.0,8.0,4.0,138.0,2.0,2.0,2.0,4.0,88.56,147.36357696663714,2.0051361564552037,984.0307550546438
F-1087,"7-(3-amino-2,3-dimethylazetidin-1-yl)-1-cyclopropyl-6,8-difluoro-4-oxoquinoline-3-carboxylic acid","InChI=1S/C18H19F2N3O3/c1-8-18(2,21)7-23(8)15-12(19)5-10-14(13(15)20)22(9-3-4-9)6-11(16(10)24)17(25)26/h5-6,8-9H,3-4,7,21H2,1-2H3,(H,25,26)",FNYQALWNSAGHJV-UHFFFAOYSA-N,CC1N(c2c(F)cc3c(=O)c(C(=O)O)cn(C4CC4)c3c2F)CC1(C)N,-5.04,0.0,1,G1,363.36400000000015,2.2387,92.75470000000004,26.0,5.0,2.0,8.0,3.0,138.0,2.0,2.0,2.0,4.0,88.56,147.36357696663714,2.0090274725263333,1011.1340086527828
F-1088,7-(3-amino-2-methylazetidin-1-yl)-1-cyclopropyl-6-fluoro-4-oxoquinoline-3-carboxylic acid,"InChI=1S/C17H18FN3O3/c1-8-13(19)7-20(8)15-5-14-10(4-12(15)18)16(22)11(17(23)24)6-21(14)9-2-3-9/h4-6,8-9,13H,2-3,7,19H2,1H3,(H,23,24)",BYUOTYDQGYSLFD-UHFFFAOYSA-N,CC1C(N)CN1c1cc2c(cc1F)c(=O)c(C(=O)O)cn2C1CC1,-4.63,0.0,1,G1,331.34700000000004,1.7095000000000002,88.17970000000003,24.0,5.0,2.0,7.0,3.0,126.0,2.0,2.0,2.0,4.0,88.56,136.8330994493143,1.959251001199356,919.4172128273324
F-1089,"7-(3-amino-2-methylazetidin-1-yl)-1-cyclopropyl-6,8-difluoro-4-oxoquinoline-3-carboxylic acid","InChI=1S/C17H17F2N3O3/c1-7-12(20)6-21(7)15-11(18)4-9-14(13(15)19)22(8-2-3-8)5-10(16(9)23)17(24)25/h4-5,7-8,12H,2-3,6,20H2,1H3,(H,24,25)",ORHUFIOIUIPUTP-UHFFFAOYSA-N,CC1C(N)CN1c1c(F)cc2c(=O)c(C(=O)O)cn(C3CC3)c2c1F,-4.17,0.0,1,G1,349.3370000000001,1.8486,88.13770000000002,25.0,5.0,2.0,8.0,3.0,132.0,2.0,2.0,2.0,4.0,88.56,140.9986348522405,2.032954972398826,967.9900145945018
B-1479,2-pteridinamine,"InChI=1S/C6H5N5/c7-6-10-3-4-5(11-6)9-2-1-8-4/h1-3H,(H2,7,9,10,11)",HYCZDWGCJOEHBO-UHFFFAOYSA-N,Nc1ncc2nccnc2n1,-2.2979,0.0,1,G1,147.141,0.0019999999999998,39.540400000000005,11.0,5.0,1.0,5.0,0.0,54.0,2.0,0.0,0.0,2.0,77.58,62.33155027203094,2.8289012156206956,385.3843558687883
B-1618,"pteridine, 7-chloro-",InChI=1S/C6H3ClN4/c7-5-2-9-4-1-8-3-10-6(4)11-5/h1-3H,AANUQVPVSJJCRI-UHFFFAOYSA-N,Clc1cnc2cncnc2n1,-0.8749,0.0,1,G1,166.57099999999997,1.0731999999999997,40.138000000000005,11.0,4.0,0.0,5.0,0.0,54.0,2.0,0.0,0.0,2.0,51.56,67.2949258018999,2.8289012156206956,388.9939963432251