ID,Name,InChI,InChIKey,SMILES,Solubility,SD,Occurrences,Group,MolWt,MolLogP,MolMR,HeavyAtomCount,NumHAcceptors,NumHDonors,NumHeteroatoms,NumRotatableBonds,NumValenceElectrons,NumAromaticRings,NumSaturatedRings,NumAliphaticRings,RingCount,TPSA,LabuteASA,BalabanJ,BertzCT
A-1931,[2-(tert-butylperoxy)propan-2-yl]benzene,"InChI=1S/C13H20O2/c1-12(2,3)14-15-13(4,5)11-9-7-6-8-10-11/h6-10H,1-5H3",BIISIZOQPWZPPS-UHFFFAOYSA-N,CC(C)(C)OOC(C)(C)c1ccccc1,-4.2909341502,0.0,1,G1,208.301,3.668400000000003,61.39100000000005,15.0,2.0,0.0,2.0,3.0,84.0,1.0,0.0,0.0,1.0,18.46,92.1423836950253,2.6788339682610025,296.0620335464123
A-1961,[(1E)-2-(diethoxymethyl)hept-1-en-1-yl]benzene,"InChI=1S/C18H28O2/c1-4-7-9-14-17(18(19-5-2)20-6-3)15-16-12-10-8-11-13-16/h8,10-13,15,18H,4-7,9,14H2,1-3H3/b17-15+",MPKOLWUWOADQCX-BMRADRMJSA-N,CCCCC/C(=C\c1ccccc1)C(OCC)OCC,-5.1720565184,0.0,1,G1,276.42,5.049400000000005,85.60100000000007,20.0,2.0,0.0,2.0,10.0,112.0,1.0,0.0,0.0,1.0,18.46,123.34819591908575,2.837712550013319,364.26442904257175
A-2033,bis(3-methylbutyl) phthalate,"InChI=1S/C18H26O4/c1-13(2)9-11-21-17(19)15-7-5-6-8-16(15)18(20)22-12-10-14(3)4/h5-8,13-14H,9-12H2,1-4H3",JANBFCARANRIKJ-UHFFFAOYSA-N,CC(C)CCOC(=O)c1ccccc1C(=O)OCCC(C)C,-5.444898910599999,0.0,1,G1,306.40200000000004,4.092400000000004,85.91700000000006,22.0,4.0,0.0,4.0,8.0,122.0,1.0,0.0,0.0,1.0,52.60000000000001,132.3608431513576,2.6763110482800374,446.6154526366281
A-2043,"1,3-diethyl 2-({4-[3-ethoxy-2-(ethoxycarbonyl)-3-oxoprop-1-en-1-yl]phenyl}methylidene)propanedioate","InChI=1S/C22H26O8/c1-5-27-19(23)17(20(24)28-6-2)13-15-9-11-16(12-10-15)14-18(21(25)29-7-3)22(26)30-8-4/h9-14H,5-8H2,1-4H3",YUOKTNQLLUHUEK-UHFFFAOYSA-N,CCOC(=O)C(=Cc1ccc(C=C(C(=O)OCC)C(=O)OCC)cc1)C(=O)OCC,-5.6216352692,0.0,1,G1,418.4420000000003,2.705800000000001,108.92800000000004,30.0,8.0,0.0,8.0,10.0,162.0,1.0,0.0,0.0,1.0,105.20000000000005,174.99154020367683,3.216129253403321,709.0442171079859
A-2077,"1-N,4-N-bis(5-methylhexan-2-yl)benzene-1,4-diamine","InChI=1S/C20H36N2/c1-15(2)7-9-17(5)21-19-11-13-20(14-12-19)22-18(6)10-8-16(3)4/h11-18,21-22H,7-10H2,1-6H3",ZJNLYGOUHDJHMG-UHFFFAOYSA-N,CC(C)CCC(C)Nc1ccc(NC(C)CCC(C)C)cc1,-5.5751336546,0.7068671379500002,2,G2,304.52200000000005,6.159800000000006,100.75540000000008,22.0,2.0,2.0,2.0,10.0,126.0,1.0,0.0,0.0,1.0,24.06,137.64031708826553,2.386947201191402,355.6732005069589
A-2087,"2,6-di-tert-butyl-4-methylphenol","InChI=1S/C15H24O/c1-10-8-11(14(2,3)4)13(16)12(9-10)15(5,6)7/h8-9,16H,1-7H3",NLZUEZXRPGMBCV-UHFFFAOYSA-N,Cc1cc(C(C)(C)C)c(O)c(C(C)(C)C)c1,-5.4623112879999995,0.159617263549796,5,G5,220.35599999999997,4.295620000000003,70.24380000000005,16.0,1.0,1.0,1.0,0.0,90.0,1.0,0.0,0.0,1.0,20.23,99.51011590126242,3.507848337934589,353.8715828475769
A-2089,"2,4,6-tris(butan-2-yl)phenol","InChI=1S/C18H30O/c1-7-12(4)15-10-16(13(5)8-2)18(19)17(11-15)14(6)9-3/h10-14,19H,7-9H2,1-6H3",LAVMWOGIDKQCDK-UHFFFAOYSA-N,CCC(C)c1cc(C(C)CC)c(O)c(C(C)CC)c1,-5.5497933448,0.5851308576999998,2,G2,262.43699999999995,5.932700000000007,84.22480000000006,19.0,1.0,1.0,1.0,6.0,108.0,1.0,0.0,0.0,1.0,20.23,118.60494224445226,3.374419947424018,377.1464645198251
A-2136,2-ethylhexyl benzoate,"InChI=1S/C15H22O2/c1-3-5-9-13(4-2)12-17-15(16)14-10-7-6-8-11-14/h6-8,10-11,13H,3-5,9,12H2,1-2H3",UADWUILHKRXHMM-UHFFFAOYSA-N,CCCCC(CC)COC(=O)c1ccccc1,-5.767784581,0.0,1,G1,234.339,4.059800000000004,70.03050000000005,17.0,2.0,0.0,2.0,7.0,94.0,1.0,0.0,0.0,1.0,26.3,103.9909494786171,2.362420164809228,318.9535215198018
A-2188,bis(8-methylnonyl) phenyl phosphite,"InChI=1S/C26H47O3P/c1-24(2)18-12-7-5-9-16-22-27-30(29-26-20-14-11-15-21-26)28-23-17-10-6-8-13-19-25(3)4/h11,14-15,20-21,24-25H,5-10,12-13,16-19,22-23H2,1-4H3",SXXILWLQSQDLDL-UHFFFAOYSA-N,CC(C)CCCCCCCOP(OCCCCCCCC(C)C)Oc1ccccc1,-6.382029914199999,0.3217805640499995,2,G3,438.6330000000002,9.3187,130.97400000000005,30.0,3.0,0.0,4.0,20.0,174.0,1.0,0.0,0.0,1.0,27.69,187.83057725120472,2.1678707463877176,454.4268691113174
A-2241,4-tert-butylphenol; formaldehyde,"InChI=1S/C10H14O.CH2O/c1-10(2,3)8-4-6-9(11)7-5-8;1-2/h4-7,11H,1-3H3;1H2",LZDOYVMSNJBLIM-UHFFFAOYSA-N,C=O.CC(C)(C)c1ccc(O)cc1,-6.4939402067,0.0,1,G1,180.24699999999996,2.5048000000000004,53.92780000000004,13.0,2.0,1.0,2.0,0.0,72.0,1.0,0.0,0.0,1.0,37.3,79.21770069724901,6.709090223541395e-07,243.7879433053778
A-2251,(2-methoxy-5-nitrophenyl) acetate,"InChI=1S/C9H9NO5/c1-6(11)15-9-5-7(10(12)13)3-4-8(9)14-2/h3-5H,1-2H3",XBFBLYSAWSLPRY-UHFFFAOYSA-N,COc1ccc([N+](=O)[O-])cc1OC(C)=O,-2.9466040673,0.0,1,G1,211.17299999999997,1.5286999999999995,50.957400000000014,15.0,5.0,0.0,6.0,3.0,80.0,1.0,0.0,0.0,1.0,78.66999999999999,85.56781774424411,3.123368127282912,401.4892192028793
A-2257,"1,2-bis(2-ethylhexyl) benzene-1,2-dicarboxylate","InChI=1S/C24H38O4/c1-5-9-13-19(7-3)17-27-23(25)21-15-11-12-16-22(21)24(26)28-18-20(8-4)14-10-6-2/h11-12,15-16,19-20H,5-10,13-14,17-18H2,1-4H3",BJQHLKABXJIVAM-UHFFFAOYSA-N,CCCCC(CC)COC(=O)c1ccccc1C(=O)OCC(CC)CCCC,-6.9789083532000005,0.6138293590016048,7,G4,390.5640000000003,6.433000000000007,113.61900000000009,28.0,4.0,0.0,4.0,14.0,158.0,1.0,0.0,0.0,1.0,52.60000000000001,170.55049583773723,2.690590456464838,530.7228097510646
A-2258,"1,2-bis(propan-2-yl)benzene; 1,3-bis(propan-2-yl)benzene; 1,4-bis(propan-2-yl)benzene","InChI=1S/C12H18/c1-9(2)11-7-5-6-8-12(11)10(3)4/h5-10H,1-4H3",OKIRBHVFJGXOIS-UHFFFAOYSA-N,CC(C)c1ccccc1C(C)C,-6.6027992709,0.0,1,G1,162.27599999999995,3.9334000000000033,54.62000000000005,12.0,0.0,0.0,0.0,2.0,66.0,1.0,0.0,0.0,1.0,0.0,75.6210558058766,3.086388778868778,218.97015243201017
A-2259,"1,3-diisopropylbenzene","InChI=1S/C12H18/c1-9(2)11-6-5-7-12(8-11)10(3)4/h5-10H,1-4H3",UNEATYXSUBPPKP-UHFFFAOYSA-N,CC(C)c1cccc(C(C)C)c1,-6.6027992709,0.0,1,G1,162.27599999999995,3.9334000000000033,54.62000000000005,12.0,0.0,0.0,0.0,2.0,66.0,1.0,0.0,0.0,1.0,0.0,75.6210558058766,2.95842190964212,222.72015243201017
A-2319,"1,2-Benzenedicarboxylic acid, di-C9-11-branched alkyl esters, C10-rich","InChI=1S/C28H46O4/c1-23(2)17-11-7-5-9-15-21-31-27(29)25-19-13-14-20-26(25)28(30)32-22-16-10-6-8-12-18-24(3)4/h13-14,19-20,23-24H,5-12,15-18,21-22H2,1-4H3",ZVFDTKUVRCTHQE-UHFFFAOYSA-N,CC(C)CCCCCCCOC(=O)c1ccccc1C(=O)OCCCCCCCC(C)C,-9.4195398078,0.0,1,G1,446.6720000000004,7.993400000000009,132.08700000000005,32.0,4.0,0.0,4.0,18.0,182.0,1.0,0.0,0.0,1.0,52.60000000000001,196.01026429532376,2.264773913876615,581.0744728730804
A-2359,"ethyl 3,5-dichloro-4-{[(hexadecyloxy)carbonyl]oxy}benzoate","InChI=1S/C26H40Cl2O5/c1-3-5-6-7-8-9-10-11-12-13-14-15-16-17-18-32-26(30)33-24-22(27)19-21(20-23(24)28)25(29)31-4-2/h19-20H,3-18H2,1-2H3",DFMGMJBWBQNZNK-UHFFFAOYSA-N,CCCCCCCCCCCCCCCCOC(=O)Oc1c(Cl)cc(C(=O)OCC)cc1Cl,-7.1338037886,0.0,1,G1,503.5070000000002,9.1668,134.70649999999998,33.0,5.0,0.0,7.0,18.0,188.0,1.0,0.0,0.0,1.0,61.83,209.00045774980072,2.078120330809087,670.2549708593634
A-2395,3-oxo-N-[4-(3-oxobutanamido)phenyl]butanamide,"InChI=1S/C14H16N2O4/c1-9(17)7-13(19)15-11-3-5-12(6-4-11)16-14(20)8-10(2)18/h3-6H,7-8H2,1-2H3,(H,15,19)(H,16,20)",OWGNKUKYZPVEFS-UHFFFAOYSA-N,CC(=O)CC(=O)Nc1ccc(NC(=O)CC(C)=O)cc1,-3.1275010898000004,0.1016643388,2,G3,276.292,1.5217999999999998,74.29740000000002,20.0,4.0,2.0,6.0,6.0,106.0,1.0,0.0,0.0,1.0,92.34,116.096752802061,2.55723407622722,485.6098145826132
A-2424,"4-nitrobenzene-1,3-diamine","InChI=1S/C6H7N3O2/c7-4-1-2-6(9(10)11)5(8)3-4/h1-3H,7-8H2",DPIZKMGPXNXSGL-UHFFFAOYSA-N,Nc1ccc([N+](=O)[O-])c(N)c1,-2.1850914787,0.69766319655,2,G2,153.14100000000002,0.7592000000000001,41.9212,11.0,4.0,2.0,5.0,1.0,58.0,1.0,0.0,0.0,1.0,95.18,62.76416023602219,3.1960696621259204,297.8789117242989
A-2443,"O1-nonyl O2-octyl benzene-1,2-dicarboxylate","InChI=1S/C25H40O4/c1-3-5-7-9-11-13-17-21-29-25(27)23-19-15-14-18-22(23)24(26)28-20-16-12-10-8-6-4-2/h14-15,18-19H,3-13,16-17,20-21H2,1-2H3",ZKHMKHBSASMXEZ-UHFFFAOYSA-N,CCCCCCCCCOC(=O)c1ccccc1C(=O)OCCCCCCCC,-4.7809414151,0.0,1,G1,404.5910000000004,7.111300000000008,118.37600000000008,29.0,4.0,0.0,4.0,17.0,164.0,1.0,0.0,0.0,1.0,52.60000000000001,176.91543795213389,2.3166728863167485,567.6967115582063
A-2460,"3,5-di-tert-butyl-2-hydroxybenzoic acid hydrate zinc hydrochloride","InChI=1S/C15H22O3.ClH.H2O.Zn/c1-14(2,3)9-7-10(13(17)18)12(16)11(8-9)15(4,5)6;;;/h7-8,16H,1-6H3,(H,17,18);1H;1H2;",DDGGEFYAEPNQFB-UHFFFAOYSA-N,CC(C)(C)c1cc(C(=O)O)c(O)c(C(C)(C)C)c1.Cl.O.[Zn],-4.8694711025999995,0.0,1,G1,370.2040000000002,3.280000000000002,83.32790000000006,21.0,2.0,2.0,6.0,1.0,118.0,1.0,0.0,0.0,1.0,89.03000000000002,144.98304647703094,-1.0799998338000268e-06,487.67258898381453
A-2465,2-(4-chloro-2-fluorophenyl)acetonitrile,"InChI=1S/C8H5ClFN/c9-7-2-1-6(3-4-11)8(10)5-7/h1-2,5H,3H2",RTQOANCZEAIDEZ-UHFFFAOYSA-N,N#CCc1ccc(Cl)cc1F,-2.5939062498,0.0,1,G1,169.58599999999998,2.54518,40.72700000000001,11.0,1.0,0.0,3.0,1.0,56.0,1.0,0.0,0.0,1.0,23.79,69.0226686595668,3.0147352900100564,303.4506347581317
A-2466,"2,2-dimethyl-4-phenylpentanenitrile","InChI=1S/C13H17N/c1-11(9-13(2,3)10-14)12-7-5-4-6-8-12/h4-8,11H,9H2,1-3H3",GWCCFAFCQHECBM-UHFFFAOYSA-N,CC(CC(C)(C)C#N)c1ccccc1,-3.2350788163,0.0,1,G1,187.28600000000003,3.729980000000003,58.868000000000045,14.0,1.0,0.0,1.0,3.0,74.0,1.0,0.0,0.0,1.0,23.79,86.37857760174195,2.696134203688046,318.8388414746719
A-2504,"2-tert-butylbenzene-1,4-diol","InChI=1S/C10H14O2/c1-10(2,3)8-6-7(11)4-5-9(8)12/h4-6,11-12H,1-3H3",BGNXCDMCOKJUMV-UHFFFAOYSA-N,CC(C)(C)c1cc(O)ccc1O,-1.220683278,0.0,1,G1,166.21999999999997,2.395300000000001,48.47160000000004,12.0,2.0,2.0,2.0,0.0,66.0,1.0,0.0,0.0,1.0,40.46,72.47963908147543,3.2314250130900137,284.38032048123233
A-2505,4-methoxy-2-nitroaniline,"InChI=1S/C7H8N2O3/c1-12-5-2-3-6(8)7(4-5)9(10)11/h2-4H,8H2,1H3",QFMJFXFXQAFGBO-UHFFFAOYSA-N,COc1ccc(N)c([N+](=O)[O-])c1,-1.2257020372,0.9603989814,2,G2,168.152,1.1855999999999998,44.06080000000001,12.0,4.0,1.0,5.0,2.0,64.0,1.0,0.0,0.0,1.0,78.38999999999999,68.90275688291297,3.167265777748714,311.5198400095355
A-2561,4-amino-N-(2-ethylhexyl)benzene-1-sulfonamide,"InChI=1S/C14H24N2O2S/c1-3-5-6-12(4-2)11-16-19(17,18)14-9-7-13(15)8-10-14/h7-10,12,16H,3-6,11,15H2,1-2H3",HHEXVLXMZIVFSS-UHFFFAOYSA-N,CCCCC(CC)CNS(=O)(=O)c1ccc(N)cc1,-5.453967766799999,0.0,1,G1,284.425,2.7635000000000005,79.34890000000004,19.0,3.0,2.0,5.0,8.0,108.0,1.0,0.0,0.0,1.0,72.19,116.00146880770568,2.6136360098361164,468.7242608991908
A-2569,bis(11-methyldodecyl) phthalate,"InChI=1S/C34H58O4/c1-29(2)23-17-13-9-5-7-11-15-21-27-37-33(35)31-25-19-20-26-32(31)34(36)38-28-22-16-12-8-6-10-14-18-24-30(3)4/h19-20,25-26,29-30H,5-18,21-24,27-28H2,1-4H3",BCSGAWBQJHXXSE-UHFFFAOYSA-N,CC(C)CCCCCCCCCCOC(=O)c1ccccc1C(=O)OCCCCCCCCCCC(C)C,-5.724958731699999,0.0,1,G1,530.8340000000004,10.333999999999994,159.7889999999997,38.0,4.0,0.0,4.0,24.0,218.0,1.0,0.0,0.0,1.0,52.60000000000001,234.1999169817034,2.1343696311526954,663.9509338586317
A-2598,"[1,3(or 1,4)-phenylenebis(1-methylethylidene)]bis[tert-butyl] peroxide","InChI=1S/C20H34O4/c1-17(2,3)21-23-19(7,8)15-11-13-16(14-12-15)20(9,10)24-22-18(4,5)6/h11-14H,1-10H3",GWQOYRSARAWVTC-UHFFFAOYSA-N,CC(C)(C)OOC(C)(C)c1ccc(C(C)(C)OOC(C)(C)C)cc1,-5.7371515873000005,0.5951658490999994,2,G2,338.4880000000001,5.650200000000006,96.34000000000007,24.0,4.0,0.0,4.0,6.0,138.0,1.0,0.0,0.0,1.0,36.92,146.85336427055367,2.8384135545500784,467.05520970457894
A-2639,"1,2-Benzenedicarboxylic acid, di-C8-10-branched alkyl esters, C9-rich","InChI=1S/C26H42O4/c1-21(2)15-9-5-7-13-19-29-25(27)23-17-11-12-18-24(23)26(28)30-20-14-8-6-10-16-22(3)4/h11-12,17-18,21-22H,5-10,13-16,19-20H2,1-4H3",HBGGXOJOCNVPFY-UHFFFAOYSA-N,CC(C)CCCCCCOC(=O)c1ccccc1C(=O)OCCCCCCC(C)C,-6.6218178985,1.2440651110861127,4,G4,418.6180000000004,7.213200000000008,122.8530000000001,30.0,4.0,0.0,4.0,16.0,170.0,1.0,0.0,0.0,1.0,52.60000000000001,183.28038006653048,2.322002410863764,553.8060883770335
A-2666,octyl (2R)-2-(4-chloro-2-methylphenoxy)propanoate,"InChI=1S/C18H27ClO3/c1-4-5-6-7-8-9-12-21-18(20)15(3)22-17-11-10-16(19)13-14(17)2/h10-11,13,15H,4-9,12H2,1-3H3/t15-/m1/s1",QWQMRXFSCXUHMR-OAHLLOKOSA-N,CCCCCCCCOC(=O)[C@@H](C)Oc1ccc(Cl)cc1C,-6.5143670911000005,0.0,1,G1,326.86400000000003,5.319420000000005,90.61400000000006,22.0,3.0,0.0,4.0,10.0,124.0,1.0,0.0,0.0,1.0,35.53,138.50258727819548,2.242455437207009,459.6455324520554
A-2674,"2,5-bis(1,1-dimethylpropyl)benzene-1,4-diol","InChI=1S/C16H26O2/c1-7-15(3,4)11-9-14(18)12(10-13(11)17)16(5,6)8-2/h9-10,17-18H,7-8H2,1-6H3",CZNRFEXEPBITDS-UHFFFAOYSA-N,CCC(C)(C)c1cc(O)c(C(C)(C)CC)cc1O,-6.495513117200001,0.0,1,G1,250.38199999999995,4.473000000000004,76.40560000000006,18.0,2.0,2.0,2.0,4.0,102.0,1.0,0.0,0.0,1.0,40.46,110.66929176785509,3.379425183237454,389.2182552927973
A-2687,"1,2,4-tris(2-methyldodecyl) benzene-1,2,4-tricarboxylate","InChI=1S/C48H84O6/c1-40(2)31-25-19-13-7-10-16-22-28-36-52-46(49)43-34-35-44(47(50)53-37-29-23-17-11-8-14-20-26-32-41(3)4)45(39-43)48(51)54-38-30-24-18-12-9-15-21-27-33-42(5)6/h34-35,39-42H,7-33,36-38H2,1-6H3",IGQFKXMQIMEIJV-UHFFFAOYSA-N,CC(C)CCCCCCCCCCOC(=O)c1ccc(C(=O)OCCCCCCCCCCC(C)C)c(C(=O)OCCCCCCCCCCC(C)C)c1,-7.180237159600001,0.0,1,G1,757.1939999999997,14.657699999999968,226.46249999999895,54.0,6.0,0.0,6.0,36.0,312.0,1.0,0.0,0.0,1.0,78.90000000000002,332.5841739128063,2.553093508669711,1076.9726124269114
A-2750,(benzoyloxy)(hydroxy)alumanyl octadecanoate,"InChI=1S/C18H36O2.C7H6O2.Al.H2O/c1-2-3-4-5-6-7-8-9-10-11-12-13-14-15-16-17-18(19)20;8-7(9)6-4-2-1-3-5-6;;/h2-17H2,1H3,(H,19,20);1-5H,(H,8,9);;1H2/q;;+3;/p-3",PMWKMVGWLYXGLN-UHFFFAOYSA-K,CCCCCCCCCCCCCCCCCC(=O)[O][Al]([OH])[O]C(=O)c1ccccc1,-7.253899897899999,0.0,1,G1,448.5800000000001,6.625300000000007,125.46830000000004,31.0,5.0,1.0,6.0,19.0,174.0,1.0,0.0,0.0,1.0,72.83000000000001,193.47129822773076,1.882758307021711,578.5348998561111
A-2772,"3-(3,5-di-tert-butyl-4-hydroxyphenyl)-N-octadecylpropanamide","InChI=1S/C35H63NO2/c1-8-9-10-11-12-13-14-15-16-17-18-19-20-21-22-23-26-36-32(37)25-24-29-27-30(34(2,3)4)33(38)31(28-29)35(5,6)7/h27-28,38H,8-26H2,1-7H3,(H,36,37)",HQSOHEURLMFXBX-UHFFFAOYSA-N,CCCCCCCCCCCCCCCCCCNC(=O)CCc1cc(C(C)(C)C)c(O)c(C(C)(C)C)c1,-7.724189002,0.0,1,G1,529.8940000000002,10.297499999999994,166.38349999999966,38.0,2.0,2.0,3.0,20.0,220.0,1.0,0.0,0.0,1.0,49.33,236.52034247284655,2.131331311862653,734.1149338463188
A-2804,"1,2-bis(2-propylheptyl) benzene-1,2-dicarboxylate","InChI=1S/C28H46O4/c1-5-9-11-17-23(15-7-3)21-31-27(29)25-19-13-14-20-26(25)28(30)32-22-24(16-8-4)18-12-10-6-2/h13-14,19-20,23-24H,5-12,15-18,21-22H2,1-4H3",MTYUOIVEVPTXFX-UHFFFAOYSA-N,CCCCCC(CCC)COC(=O)c1ccccc1C(=O)OCC(CCC)CCCCC,-9.6499887292,0.0,1,G1,446.6720000000004,7.993400000000009,132.08700000000005,32.0,4.0,0.0,4.0,18.0,182.0,1.0,0.0,0.0,1.0,52.60000000000001,196.0102642953237,2.695659241013294,585.0744728730804
A-2814,4-(propan-2-yl)benzene-1-sulfonic acid,"InChI=1S/C9H12O3S/c1-7(2)8-3-5-9(6-4-8)13(10,11)12/h3-7H,1-2H3,(H,10,11,12)",CVLHGLWXLDOELD-UHFFFAOYSA-N,CC(C)c1ccc(S(=O)(=O)O)cc1,0.6127511139,0.0,1,G1,200.25899999999996,2.0567,50.345600000000026,13.0,2.0,1.0,4.0,2.0,72.0,1.0,0.0,0.0,1.0,54.37,78.15486547272738,3.083559884053619,375.82577061537546
A-2819,4-aminobenzonitrile,"InChI=1S/C7H6N2/c8-5-6-1-3-7(9)4-2-6/h1-4H,9H2",YBAZINRZQSAIAY-UHFFFAOYSA-N,N#Cc1ccc(N)cc1,-1.1429743647,0.0104669534,2,G3,118.139,1.1404800000000002,35.569400000000016,9.0,2.0,1.0,2.0,0.0,44.0,1.0,0.0,0.0,1.0,49.81,53.528815612375,3.05603839622726,230.0882179862608
A-2857,(2S)-2-hydroxy-3-(phenylamino)propane-1-sulfonate,"InChI=1S/C9H13NO4S/c11-9(7-15(12,13)14)6-10-8-4-2-1-3-5-8/h1-5,9-11H,6-7H2,(H,12,13,14)/p-1/t9-/m0/s1",CLEVULOKVPBHCU-VIFPVBQESA-M,O=S(=O)([O-])C[C@@H](O)CNc1ccccc1,0.1187844902,0.0,1,G1,230.26499999999996,0.0045999999999999,55.50270000000003,15.0,5.0,2.0,6.0,5.0,84.0,1.0,0.0,0.0,1.0,89.45999999999998,88.49896140853144,2.3813747338540936,389.833188217996
A-2871,potassium benzoate,"InChI=1S/C7H6O2.K/c8-7(9)6-4-2-1-3-5-6;/h1-5H,(H,8,9);/q;+1/p-1",XAEFZNCEHLXOMS-UHFFFAOYSA-M,O=C([O-])c1ccccc1.[K+],0.4872673501,0.0,1,G1,160.213,-2.945899999999998,30.772499999999994,10.0,2.0,0.0,3.0,1.0,46.0,1.0,0.0,0.0,1.0,40.129999999999995,101.67466578149596,8.099998872750162e-07,208.10590854015385
A-2873,"4-[(3S)-3-ethenyl-3,7-dimethylocta-1,6-dienyl]phenol","InChI=1S/C18H24O/c1-5-18(4,13-6-7-15(2)3)14-12-16-8-10-17(19)11-9-16/h5,7-12,14,19H,1,6,13H2,2-4H3/b14-12+/t18-/m1/s1",LFYJSSARVMHQJB-QIXNEVBVSA-N,C=C[C@@](C)(/C=C/c1ccc(O)cc1)CCC=C(C)C,-6.3370173812,0.0,1,G1,256.389,5.344100000000005,84.10980000000005,19.0,1.0,1.0,1.0,6.0,102.0,1.0,0.0,0.0,1.0,20.23,116.53613314789952,2.7103278273301616,460.9685797820357
A-2881,benzyldimethyltetradecylazanium chloride,"InChI=1S/C23H42N.ClH/c1-4-5-6-7-8-9-10-11-12-13-14-18-21-24(2,3)22-23-19-16-15-17-20-23;/h15-17,19-20H,4-14,18,21-22H2,1-3H3;1H/q+1;/p-1",OCBHHZMJRVXXQK-UHFFFAOYSA-M,CCCCCCCCCCCCCC[N+](C)(C)Cc1ccccc1.[Cl-],-0.9531217854,1.0747684048570405,5,G4,368.049,3.9681000000000015,108.1994000000001,25.0,0.0,0.0,2.0,15.0,146.0,1.0,0.0,0.0,1.0,0.0,163.7583174735874,5.759991038414532e-06,388.339080515553
A-2898,lithium(1+) ion benzoate,"InChI=1S/C7H6O2.Li/c8-7(9)6-4-2-1-3-5-6;/h1-5H,(H,8,9);/q;+1/p-1",LDJNSLOKTFFLSL-UHFFFAOYSA-M,O=C([O-])c1ccccc1.[Li+],0.3909106219,0.0,1,G1,128.05599999999995,-2.945899999999998,30.772499999999994,10.0,2.0,0.0,3.0,1.0,46.0,1.0,0.0,0.0,1.0,40.129999999999995,71.04966661206578,8.099998872750162e-07,208.10590854015385
A-2921,"2,4,6-trimethylbenzene-1,3-diamine","InChI=1S/C9H14N2/c1-5-4-6(2)9(11)7(3)8(5)10/h4H,10-11H2,1-3H3",ZVDSMYGTJDFNHN-UHFFFAOYSA-N,Cc1cc(C)c(N)c(C)c1N,-0.8207163555,0.0,1,G1,150.225,1.77626,49.47780000000001,11.0,2.0,2.0,2.0,0.0,60.0,1.0,0.0,0.0,1.0,52.04,67.20601085671221,3.4555464838177836,263.8544742134815
A-2927,4-methylphenol,"InChI=1S/C7H8O/c1-6-2-4-7(8)5-3-6/h2-5,8H,1H3",IWDCLRJOBJJRNH-UHFFFAOYSA-N,Cc1ccc(O)cc1,-0.7015479053,0.0295970586919949,4,G5,108.14,1.7006199999999998,32.843799999999995,8.0,1.0,1.0,1.0,0.0,42.0,1.0,0.0,0.0,1.0,20.23,48.59057898608958,3.0324555320336755,143.24662946459569
A-2933,methyl 2-aminobenzoate,"InChI=1S/C8H9NO2/c1-11-8(10)6-4-2-3-5-7(6)9/h2-5H,9H2,1H3",VAMXMNNIEUEQDV-UHFFFAOYSA-N,COC(=O)c1ccccc1N,-1.7338470451,0.0,1,G1,151.16499999999996,1.0554,42.19390000000001,11.0,3.0,1.0,3.0,1.0,58.0,1.0,0.0,0.0,1.0,52.32,64.77624537485353,3.032662155800657,270.54949758389114
A-2940,"ethyl 3,4-dihydroxybenzoate","InChI=1S/C9H10O4/c1-2-13-9(12)6-3-4-7(10)8(11)5-6/h3-5,10-11H,2H2,1H3",KBPUBCVJHFXPOC-UHFFFAOYSA-N,CCOC(=O)c1ccc(O)c(O)c1,-1.8556550616,0.0,1,G1,182.175,1.2744999999999995,45.728100000000026,13.0,4.0,2.0,4.0,2.0,70.0,1.0,0.0,0.0,1.0,66.76,75.38976429662947,2.9029492111309567,319.3907822709721
A-2942,"benzene-1,3,5-tricarboxylic acid","InChI=1S/C9H6O6/c10-7(11)4-1-5(8(12)13)3-6(2-4)9(14)15/h1-3H,(H,10,11)(H,12,13)(H,14,15)",QMKYBPDZANOJGF-UHFFFAOYSA-N,O=C(O)c1cc(C(=O)O)cc(C(=O)O)c1,-1.9422995529,0.5198497764500001,2,G2,210.14099999999996,0.7811999999999999,47.3199,15.0,3.0,3.0,6.0,3.0,78.0,1.0,0.0,0.0,1.0,111.9,83.39349701940613,3.387380075453351,368.9086863811506
A-2943,"3-(3,4-Dimethoxyphenyl)propanenitrile","InChI=1S/C11H13NO2/c1-13-10-6-5-9(4-3-7-12)8-11(10)14-2/h5-6,8H,3-4H2,1-2H3",LECKQPWCSYMCDR-UHFFFAOYSA-N,COc1ccc(CCC#N)cc1OC,-1.9013447833,0.0,1,G1,191.23,2.15998,53.48000000000003,14.0,3.0,0.0,3.0,4.0,74.0,1.0,0.0,0.0,1.0,42.25,83.87578383196248,2.850568280159484,341.63103500116875
A-2999,benzenesulfonic acid,"InChI=1S/C6H6O3S/c7-10(8,9)6-4-2-1-3-5-6/h1-5H,(H,7,8,9)",SRSXLGNVWSONIS-UHFFFAOYSA-N,O=S(=O)(O)c1ccccc1,0.8489070931,0.0,1,G1,158.178,0.9333,36.25660000000001,10.0,2.0,1.0,4.0,1.0,54.0,1.0,0.0,0.0,1.0,54.37,59.060039129537586,3.2186466288823383,301.02463059505703
A-3000,xylenesulphonic acid,"InChI=1S/C8H10O3S/c1-6-4-3-5-8(7(6)2)12(9,10)11/h3-5H,1-2H3,(H,9,10,11)",ZZXDRXVIRVJQBT-UHFFFAOYSA-N,Cc1cccc(S(=O)(=O)O)c1C,0.7779988658,0.0753554648921331,4,G5,186.232,1.55014,45.73060000000002,12.0,2.0,1.0,4.0,1.0,66.0,1.0,0.0,0.0,1.0,54.37,71.78992335833081,3.4684785345646363,392.7640417990124