ID,Name,InChI,InChIKey,SMILES,Solubility,SD,Occurrences,Group,MolWt,MolLogP,MolMR,HeavyAtomCount,NumHAcceptors,NumHDonors,NumHeteroatoms,NumRotatableBonds,NumValenceElectrons,NumAromaticRings,NumSaturatedRings,NumAliphaticRings,RingCount,TPSA,LabuteASA,BalabanJ,BertzCT
A-148,2-methyl-1-phenylpropan-2-yl butanoate,"InChI=1S/C14H20O2/c1-4-8-13(15)16-14(2,3)11-12-9-6-5-7-10-12/h5-7,9-10H,4,8,11H2,1-3H3",SHSGYHAHMQLYRB-UHFFFAOYSA-N,CCCC(=O)OC(C)(C)Cc1ccccc1,-4.1359426126,0.0,1,G1,220.312,3.3510000000000018,65.22500000000005,16.0,2.0,0.0,2.0,5.0,88.0,1.0,0.0,0.0,1.0,26.3,97.6260073642205,2.5449203918758574,327.84839499722005
A-176,"1,2-dibutyl benzene-1,2-dicarboxylate","InChI=1S/C16H22O4/c1-3-5-11-19-15(17)13-9-7-8-10-14(13)16(18)20-12-6-4-2/h7-10H,3-6,11-12H2,1-2H3",DOIRQSBPFJWKBE-UHFFFAOYSA-N,CCCCOC(=O)c1ccccc1C(=O)OCCCC,-4.3876832538,0.0572972635905897,5,G5,278.348,3.600400000000003,76.82300000000005,20.0,4.0,0.0,4.0,8.0,110.0,1.0,0.0,0.0,1.0,52.60000000000001,119.63095892256436,2.7123913375014235,398.85794216890986
A-188,4-(decanoyloxy)benzoic acid,"InChI=1S/C17H24O4/c1-2-3-4-5-6-7-8-9-16(18)21-15-12-10-14(11-13-15)17(19)20/h10-13H,2-9H2,1H3,(H,19,20)",QTMHHQFADWIZCP-UHFFFAOYSA-N,CCCCCCCCCC(=O)Oc1ccc(C(=O)O)cc1,-5.424547549700001,0.0,1,G1,292.37500000000006,4.430900000000003,81.64630000000005,21.0,3.0,1.0,4.0,10.0,116.0,1.0,0.0,0.0,1.0,63.6,125.67658955965013,2.1686226890039664,436.6082594494217
A-191,3-methylbutyl (2E)-3-(4-methoxyphenyl)prop-2-enoate,"InChI=1S/C15H20O3/c1-12(2)10-11-18-15(16)9-6-13-4-7-14(17-3)8-5-13/h4-9,12H,10-11H2,1-3H3/b9-6+",UBNYRXMKIIGMKK-RMKNXTFCSA-N,COc1ccc(/C=C/C(=O)OCCC(C)C)cc1,-5.4919252104,0.0,1,G1,248.32199999999995,3.2977000000000025,72.44200000000004,18.0,3.0,0.0,3.0,6.0,98.0,1.0,0.0,0.0,1.0,35.53,108.4148916759397,2.3983407616804873,390.7046703843559
A-204,"1,4-dibutyl benzene-1,4-dicarboxylate","InChI=1S/C16H22O4/c1-3-5-11-19-15(17)13-7-9-14(10-8-13)16(18)20-12-6-4-2/h7-10H,3-6,11-12H2,1-2H3",LQLQDKBJAIILIQ-UHFFFAOYSA-N,CCCCOC(=O)c1ccc(C(=O)OCCCC)cc1,-6.40319542,0.688111365026897,6,G4,278.348,3.600400000000003,76.82300000000005,20.0,4.0,0.0,4.0,8.0,110.0,1.0,0.0,0.0,1.0,52.60000000000001,119.63095892256436,2.503712391104127,381.6079421689099
A-225,"2-(2,6-dimethylphenoxy)acetic acid","InChI=1S/C10H12O3/c1-7-4-3-5-8(2)10(7)13-6-9(11)12/h3-5H,6H2,1-2H3,(H,11,12)",MLBCURLNKYKBEQ-UHFFFAOYSA-N,Cc1cccc(C)c1OCC(=O)O,-2.2566445306,0.4791308000418823,3,G5,180.20299999999995,1.76684,49.04680000000002,13.0,2.0,1.0,3.0,3.0,70.0,1.0,0.0,0.0,1.0,46.53,76.96047265883006,2.806920561742865,297.6959388329159
A-229,1-(4-hydroxyphenyl)ethan-1-one,"InChI=1S/C8H8O2/c1-6(9)7-2-4-8(10)5-3-7/h2-5,10H,1H3",TXFPEBPIARQUIG-UHFFFAOYSA-N,CC(=O)c1ccc(O)cc1,-1.1383824511,0.0,1,G1,136.14999999999998,1.5948,38.111300000000014,10.0,2.0,1.0,2.0,1.0,52.0,1.0,0.0,0.0,1.0,37.3,59.11704320052995,3.003400684579818,235.93943338088377
A-237,2-amino-4-nitrophenol,"InChI=1S/C6H6N2O3/c7-5-3-4(8(10)11)1-2-6(5)9/h1-3,9H,7H2",VLZVIIYRNMWPSN-UHFFFAOYSA-N,Nc1cc([N+](=O)[O-])ccc1O,-2.2056018566,0.0080490716999999,2,G3,154.12499999999997,0.8825999999999998,39.17360000000001,11.0,4.0,2.0,5.0,1.0,58.0,1.0,0.0,0.0,1.0,89.38999999999999,62.21850329120549,3.1515496683060507,297.8789117242989
A-249,methyl 2-phenylacetate,"InChI=1S/C9H10O2/c1-11-9(10)7-8-5-3-2-4-6-8/h2-6H,7H2,1H3",CRZQGDNQQAALAY-UHFFFAOYSA-N,COC(=O)Cc1ccccc1,-2.2114017234,0.0,1,G1,150.177,1.4021,42.16200000000003,11.0,2.0,0.0,2.0,2.0,58.0,1.0,0.0,0.0,1.0,26.3,65.80129679223744,2.57930229200732,228.57786591623355
A-252,1-chloro-2-methyl-3-nitrobenzene,"InChI=1S/C7H6ClNO2/c1-5-6(8)3-2-4-7(5)9(10)11/h2-4H,1H3",XCSNRORTQRKCHB-UHFFFAOYSA-N,Cc1c(Cl)cccc1[N+](=O)[O-],-3.2706864295,0.0,1,G1,171.58299999999997,2.556620000000001,42.84340000000001,11.0,2.0,0.0,4.0,1.0,58.0,1.0,0.0,0.0,1.0,43.14,68.75258718327504,3.2735808215375433,298.4920897763861
A-297,3-[4-(propan-2-yl)phenyl]propanal,"InChI=1S/C12H16O/c1-10(2)12-7-5-11(6-8-12)4-3-9-13/h5-10H,3-4H2,1-2H3",RLEFOSDUWZYGOS-UHFFFAOYSA-N,CC(C)c1ccc(CCC=O)cc1,-3.3026567858999996,0.0,1,G1,176.259,2.9415000000000013,54.91600000000004,13.0,1.0,0.0,1.0,4.0,70.0,1.0,0.0,0.0,1.0,17.07,79.78257790592039,2.636328502158334,258.9578950935822
A-301,[2-(1-propoxyethoxy)ethyl]benzene,"InChI=1S/C13H20O2/c1-3-10-14-12(2)15-11-9-13-7-5-4-6-8-13/h4-8,12H,3,9-11H2,1-2H3",FMYCPRQGKSONCP-UHFFFAOYSA-N,CCCOC(C)OCCc1ccccc1,-3.3841929036,0.0,1,G1,208.301,3.0183000000000018,61.80300000000005,15.0,2.0,0.0,2.0,7.0,84.0,1.0,0.0,0.0,1.0,18.46,92.21308837928702,2.107711727425716,245.97268253246716
A-310,"1,4-dichloro-2-nitrobenzene",InChI=1S/C6H3Cl2NO2/c7-4-1-2-5(8)6(3-4)9(10)11/h1-3H,RZKKOBGFCAHLCZ-UHFFFAOYSA-N,O=[N+]([O-])c1cc(Cl)ccc1Cl,-3.3642253983,0.375242360308355,3,G5,192.001,2.9016,43.11640000000001,11.0,2.0,0.0,5.0,1.0,58.0,1.0,0.0,0.0,1.0,43.14,72.6909112957601,3.232208870305491,300.6337992264623
A-321,(4-formylphenyl)boronic acid,"InChI=1S/C7H7BO3/c9-5-6-1-3-7(4-2-6)8(10)11/h1-5,10-11H",VXWBQOJISHAKKM-UHFFFAOYSA-N,O=Cc1ccc(B(O)O)cc1,-2.2673846672,0.0,1,G1,149.94199999999998,-0.8211000000000004,41.65510000000002,11.0,3.0,2.0,4.0,2.0,56.0,1.0,0.0,0.0,1.0,57.53,64.43893885482291,2.90982279990154,242.36752828045377
A-322,4-methyl-4-phenylpentan-2-one,"InChI=1S/C12H16O/c1-10(13)9-12(2,3)11-7-5-4-6-8-11/h4-8H,9H2,1-3H3",PFDVPCSDZXZDMF-UHFFFAOYSA-N,CC(=O)CC(C)(C)c1ccccc1,-2.337666283,0.0,1,G1,176.259,2.9433000000000016,54.76600000000004,13.0,1.0,0.0,1.0,3.0,70.0,1.0,0.0,0.0,1.0,17.07,79.78257790592039,2.870813133902019,285.2526032889556
A-334,butyl 2-aminobenzoate,"InChI=1S/C11H15NO2/c1-2-3-8-14-11(13)9-6-4-5-7-10(9)12/h4-7H,2-3,8,12H2,1H3",HUIYGGQINIVDNW-UHFFFAOYSA-N,CCCCOC(=O)c1ccccc1N,-3.3830205262,0.0,1,G1,193.246,2.2257,56.04490000000003,14.0,3.0,1.0,3.0,4.0,76.0,1.0,0.0,0.0,1.0,52.32,83.87107171804337,2.564465699481562,309.910770563408
A-359,"1,4-dimethoxybenzene","InChI=1S/C8H10O2/c1-9-7-3-5-8(10-2)6-4-7/h3-6H,1-2H3",OHBQPCCCRFSCAX-UHFFFAOYSA-N,COc1ccc(OC)cc1,-2.2455315279,0.0224181995499999,2,G3,138.166,1.7038,39.546000000000014,10.0,2.0,0.0,2.0,2.0,54.0,1.0,0.0,0.0,1.0,18.46,60.38837780730394,2.797251262969787,167.91749419417292
A-368,"2,3,5-trimethylphenol","InChI=1S/C9H12O/c1-6-4-7(2)8(3)9(10)5-6/h4-5,10H,1-3H3",OGRAOKJKVGDSFR-UHFFFAOYSA-N,Cc1cc(C)c(C)c(O)c1,-2.2522030039,0.0,1,G1,136.194,2.3174600000000005,42.31780000000002,10.0,1.0,1.0,1.0,0.0,54.0,1.0,0.0,0.0,1.0,20.23,61.32046321488279,3.310532874722407,227.900333363576
A-370,2-hydroxy-1-[4-(2-hydroxyethoxy)phenyl]-2-methylpropan-1-one,"InChI=1S/C12H16O4/c1-12(2,15)11(14)9-3-5-10(6-4-9)16-8-7-13/h3-6,13,15H,7-8H2,1-2H3",GJKGAPPUXSSCFI-UHFFFAOYSA-N,CC(C)(O)C(=O)c1ccc(OCCO)cc1,-1.4699304792,0.0,1,G1,224.25599999999997,1.0113,59.65110000000004,16.0,4.0,2.0,4.0,5.0,88.0,1.0,0.0,0.0,1.0,66.76,94.4845906398193,2.7508718380871704,348.2766641820712
A-379,benzyl propanoate,"InChI=1S/C10H12O2/c1-2-10(11)12-8-9-6-4-3-5-7-9/h3-7H,2,8H2,1H3",VHOMAPWVLKRQAZ-UHFFFAOYSA-N,CCC(=O)OCc1ccccc1,-2.344979827,0.4352019526500001,2,G3,164.204,2.1398,46.52900000000003,12.0,2.0,0.0,2.0,3.0,64.0,1.0,0.0,0.0,1.0,26.3,72.16623890663404,2.384535862890579,241.27530899395387
A-387,"2,4,5-trichloroaniline","InChI=1S/C6H4Cl3N/c7-3-1-5(9)6(10)2-4(3)8/h1-2H,10H2",GUMCAKKKNKYFEB-UHFFFAOYSA-N,Nc1cc(Cl)c(Cl)cc1Cl,-3.4359504856,0.0,1,G1,196.464,3.229,45.88440000000001,10.0,1.0,1.0,4.0,0.0,54.0,1.0,0.0,0.0,1.0,26.02,73.6810924971547,3.2824629074535228,209.1649958700664
A-391,3-(3-propan-2-ylphenyl)butanal,"InChI=1S/C13H18O/c1-10(2)12-5-4-6-13(9-12)11(3)7-8-14/h4-6,8-11H,7H2,1-3H3",OHRBQTOZYGEWCJ-UHFFFAOYSA-N,CC(C)c1cccc(C(C)CC=O)c1,-3.6773468456,0.0,1,G1,190.28599999999992,3.502500000000002,59.627000000000045,14.0,1.0,0.0,1.0,4.0,76.0,1.0,0.0,0.0,1.0,17.07,86.14752002031699,2.870654853562165,301.85880203258404
A-402,2-methoxy-4-[(1E)-prop-1-en-1-yl]phenol,"InChI=1S/C10H12O2/c1-3-4-8-5-6-9(11)10(7-8)12-2/h3-7,11H,1-2H3/b4-3+",BJIOGJUNALELMI-ONEGZZNKSA-N,C/C=C/c1ccc(O)c(OC)c1,-2.3647374971,0.0,1,G1,164.20399999999998,2.433900000000001,49.366800000000026,12.0,2.0,1.0,2.0,2.0,64.0,1.0,0.0,0.0,1.0,29.46,72.10934752660204,3.045828964705749,289.8900954855593
A-403,"3,4-dimethylbenzaldehyde","InChI=1S/C9H10O/c1-7-3-4-9(6-10)5-8(7)2/h3-6H,1-2H3",POQJHLBMLVTHAU-UHFFFAOYSA-N,Cc1ccc(C=O)cc1C,-2.277035079,0.0,1,G1,134.178,2.11594,41.303500000000014,10.0,1.0,0.0,1.0,1.0,52.0,1.0,0.0,0.0,1.0,17.07,60.687751562730554,3.158901732156222,250.90522086573952
A-411,4-hydroxy-3-methoxy-5-nitrobenzaldehyde,"InChI=1S/C8H7NO5/c1-14-7-3-5(4-10)2-6(8(7)11)9(12)13/h2-4,11H,1H3",ZEHYRTJBFMZHCY-UHFFFAOYSA-N,COc1cc(C=O)cc([N+](=O)[O-])c1O,-2.4496899299,0.0,1,G1,197.146,1.1214999999999995,46.70070000000001,14.0,5.0,1.0,6.0,3.0,74.0,1.0,0.0,0.0,1.0,89.66999999999999,78.88356415253662,3.4100123631135637,387.5631830986655
A-412,N-[3-(diethylamino)phenyl]acetamide,"InChI=1S/C12H18N2O/c1-4-14(5-2)12-8-6-7-11(9-12)13-10(3)15/h6-9H,4-5H2,1-3H3,(H,13,15)",FPUKYOSOAAPHTN-UHFFFAOYSA-N,CCN(CC)c1cccc(NC(C)=O)c1,-2.4693780306,0.0,1,G1,206.289,2.4912,64.30670000000003,15.0,2.0,1.0,3.0,4.0,82.0,1.0,0.0,0.0,1.0,32.34,91.0922737597318,2.856387015991843,332.1489335759842
A-420,"2-ethylpentyl 3-(3,5-ditert-butyl-4-hydroxyphenyl)propanoate","InChI=1S/C24H40O3/c1-9-11-17(10-2)16-27-21(25)13-12-18-14-19(23(3,4)5)22(26)20(15-18)24(6,7)8/h14-15,17,26H,9-13,16H2,1-8H3",PJZFNEYJOZUEGS-UHFFFAOYSA-N,CCCC(CC)COC(=O)CCc1cc(C(C)(C)C)c(O)c(C(C)(C)C)c1,-7.098737149600001,3.2702135328538904,4,G4,376.5810000000002,6.289300000000007,113.47580000000008,27.0,3.0,1.0,3.0,8.0,154.0,1.0,0.0,0.0,1.0,46.53,166.0696622603826,2.8975794352793756,582.4890607166549
A-433,"4-(2,4,4-trimethylpentan-2-yl)phenol","InChI=1S/C14H22O/c1-13(2,3)10-14(4,5)11-6-8-12(15)9-7-11/h6-9,15H,10H2,1-5H3",ISAVYTVYFVQUDY-UHFFFAOYSA-N,CC(C)(C)CC(C)(C)c1ccc(O)cc1,-4.4694622333,0.0,1,G1,206.329,4.106000000000003,65.20480000000005,15.0,1.0,1.0,1.0,2.0,84.0,1.0,0.0,0.0,1.0,20.23,93.14517378686584,2.9042644126592805,314.1870914248574
A-434,4-nonylphenol,"InChI=1S/C15H24O/c1-2-3-4-5-6-7-8-9-14-10-12-15(16)13-11-14/h10-13,16H,2-9H2,1H3",IGFHQQFPSIBGKE-UHFFFAOYSA-N,CCCCCCCCCc1ccc(O)cc1,-4.4980268403,0.0,1,G1,220.356,4.685300000000005,69.80380000000005,16.0,1.0,1.0,1.0,8.0,90.0,1.0,0.0,0.0,1.0,20.23,99.51011590126248,2.005636511455824,263.2683698322741
A-451,"1,2-dimethoxybenzene","InChI=1S/C8H10O2/c1-9-7-5-3-4-6-8(7)10-2/h3-6H,1-2H3",ABDKAPXRBAPSQN-UHFFFAOYSA-N,COc1ccccc1OC,-1.3149750669,0.0,1,G1,138.16599999999997,1.7038,39.546000000000014,10.0,2.0,0.0,2.0,2.0,54.0,1.0,0.0,0.0,1.0,18.46,60.38837780730394,2.964000093923802,185.16749419417297
A-453,"disodium benzene-1,3-disulfonate","InChI=1S/C6H6O6S2.2Na/c7-13(8,9)5-2-1-3-6(4-5)14(10,11)12;;/h1-4H,(H,7,8,9)(H,10,11,12);;/q;2*+1/p-2",XWPWZOJBTOJEGW-UHFFFAOYSA-L,O=S(=O)([O-])c1cccc(S(=O)(=O)[O-])c1.[Na+].[Na+],0.3709472853,0.0,1,G1,282.206,-6.497199999999997,42.368400000000015,16.0,6.0,0.0,10.0,2.0,78.0,1.0,0.0,0.0,1.0,114.39999999999998,137.51547438500216,0.0,502.8864219421056
A-458,1-chloro-2-nitro-4-(trifluoromethyl)benzene,"InChI=1S/C7H3ClF3NO2/c8-5-2-1-4(7(9,10)11)3-6(5)12(13)14/h1-3H",TZGFQIXRVUHDLE-UHFFFAOYSA-N,O=[N+]([O-])c1cc(C(F)(F)F)ccc1Cl,-2.5337046723,0.0,1,G1,225.5529999999999,3.2670000000000003,43.1084,14.0,2.0,0.0,7.0,1.0,76.0,1.0,0.0,0.0,1.0,43.14,81.24919339205375,3.267886414704282,377.6879236408014
A-463,3-(4-isopropylphenyl)-2-methylpropanal,"InChI=1S/C13H18O/c1-10(2)12-4-6-13(7-5-12)11(3)8-9-14/h4-7,9-11H,8H2,1-3H3",HQQPOVNESMNPNH-UHFFFAOYSA-N,CC(C)c1ccc(C(C)CC=O)cc1,-3.4598629013999997,0.0,1,G1,190.28599999999992,3.502500000000002,59.627000000000045,14.0,1.0,0.0,1.0,4.0,76.0,1.0,0.0,0.0,1.0,17.07,86.14752002031699,2.7685390517773505,284.60880203258404
A-475,"1,2-diethoxybenzene","InChI=1S/C10H14O2/c1-3-11-9-7-5-6-8-10(9)12-4-2/h5-8H,3-4H2,1-2H3",QZYDOKBVZJLQCK-UHFFFAOYSA-N,CCOc1ccccc1OCC,-2.41045076,0.0,1,G1,166.21999999999994,2.484000000000001,48.78000000000003,12.0,2.0,0.0,2.0,4.0,66.0,1.0,0.0,0.0,1.0,18.46,73.11826203609715,2.765009423656173,208.03511805929523
A-485,1-phenylethan-1-one,"InChI=1S/C8H8O/c1-7(9)8-5-3-2-4-6-8/h2-6H,1H3",KWOLFJPFCHCOCG-UHFFFAOYSA-N,CC(=O)c1ccccc1,-1.2803868403,0.059623190181019,4,G5,120.15099999999995,1.8892,36.44650000000001,9.0,1.0,0.0,1.0,1.0,46.0,1.0,0.0,0.0,1.0,17.07,54.32280944833394,2.981454614041131,201.06743705866424
A-491,"benzene-1,2-dicarboxylic acid","InChI=1S/C8H6O4/c9-7(10)5-3-1-2-4-6(5)8(11)12/h1-4H,(H,9,10)(H,11,12)",XNGIFLGASWRNHJ-UHFFFAOYSA-N,O=C(O)c1ccccc1C(=O)O,-1.4245732761,0.3298649325274228,8,G5,166.13199999999998,1.083,40.360600000000005,12.0,2.0,2.0,4.0,2.0,62.0,1.0,0.0,0.0,1.0,74.6,68.07279905276974,3.267076195703771,296.58467465916425
A-493,"hydrogen peroxide - 1,2-diisopropylbenzene (1:1)","InChI=1S/C12H18.H2O2/c1-9(2)11-7-5-6-8-12(11)10(3)4;1-2/h5-10H,1-4H3;1-2H",SPTHWAJJMLCAQF-UHFFFAOYSA-N,CC(C)c1ccccc1C(C)C.OO,-2.4977135853,0.0,1,G1,196.28999999999996,3.950800000000003,59.87760000000005,14.0,2.0,2.0,2.0,2.0,80.0,1.0,0.0,0.0,1.0,40.46,86.14464977953617,7.908332390743173e-07,227.25357133216272
A-494,"2,6-dimethylphenol","InChI=1S/C8H10O/c1-6-4-3-5-7(2)8(6)9/h3-5,9H,1-2H3",NXXYKOUNUYWIHA-UHFFFAOYSA-N,Cc1cccc(C)c1O,-1.292396158,0.1280709971038379,6,G5,122.167,2.00904,37.5808,9.0,1.0,1.0,1.0,0.0,48.0,1.0,0.0,0.0,1.0,20.23,54.95552110048619,3.2478347337367026,195.55766205433733
A-496,1-phenylpropan-1-ol,"InChI=1S/C9H12O/c1-2-9(10)8-6-4-3-5-7-8/h3-7,9-10H,2H2,1H3",DYUQAZSOFZSPHD-UHFFFAOYSA-N,CCC(O)c1ccccc1,-2.3403675905,0.0,1,G1,136.194,2.13,41.69280000000002,10.0,1.0,1.0,1.0,2.0,54.0,1.0,0.0,0.0,1.0,20.23,61.32046321488279,2.746978188530898,181.1795714166762
A-497,1-[3-(trifluoromethyl)phenyl]ethan-1-one,"InChI=1S/C9H7F3O/c1-6(13)7-3-2-4-8(5-7)9(10,11)12/h2-5H,1H3",ABXGMGUHGLQMAW-UHFFFAOYSA-N,CC(=O)c1cccc(C(F)(F)F)c1,-2.4821079167,0.0,1,G1,188.1479999999999,2.9080000000000013,41.44850000000002,13.0,1.0,0.0,4.0,1.0,70.0,1.0,0.0,0.0,1.0,17.07,73.18435777150926,3.131063793808188,327.87685346687334
A-498,"2,4-dichloroaniline","InChI=1S/C6H5Cl2N/c7-4-1-2-6(9)5(8)3-4/h1-3H,9H2",KQCMTOWTPBNWDB-UHFFFAOYSA-N,Nc1ccc(Cl)cc1Cl,-2.4171742578,0.0695895878999999,2,G3,162.019,2.575600000000001,40.87440000000001,9.0,1.0,1.0,3.0,0.0,48.0,1.0,0.0,0.0,1.0,26.02,63.377826270273026,3.171678030440915,222.29788705001033
A-520,2-(4-hydroxyphenyl)acetic acid,"InChI=1S/C8H8O3/c9-7-3-1-6(2-4-7)5-8(10)11/h1-4,9H,5H2,(H,10,11)",XQXPVVBIMDBYFF-UHFFFAOYSA-N,O=C(O)Cc1ccc(O)cc1,-0.3990804112,0.3954831551890782,3,G5,152.149,1.0193,39.44660000000002,11.0,2.0,2.0,3.0,2.0,58.0,1.0,0.0,0.0,1.0,57.53,63.91127695272596,2.7362980721056545,250.5446100817276
A-521,(4-methoxyphenyl)methyl acetate,"InChI=1S/C10H12O3/c1-8(11)13-7-9-3-5-10(12-2)6-4-9/h3-6H,7H2,1-2H3",HFNGYHHRRMSKEU-UHFFFAOYSA-N,COc1ccc(COC(C)=O)cc1,-2.4740066421,0.00775608305,2,G3,180.203,1.7583,48.46400000000003,13.0,3.0,0.0,3.0,3.0,70.0,1.0,0.0,0.0,1.0,35.53,77.27978413614093,2.5375612644950314,276.7262618127396
A-533,"1,4-dibromo-2-ethenylbenzene","InChI=1S/C8H6Br2/c1-2-6-5-7(9)3-4-8(6)10/h2-5H,1H2",KWVKCGGJLLNVSC-UHFFFAOYSA-N,C=Cc1cc(Br)ccc1Br,-4.5787304077,0.0,1,G1,261.94399999999996,3.854600000000002,51.93300000000001,10.0,0.0,0.0,2.0,1.0,52.0,1.0,0.0,0.0,1.0,0.0,77.20677952738866,3.211310929132047,253.4345458787203
A-563,ethyl benzoate,"InChI=1S/C9H10O2/c1-2-11-9(10)8-6-4-3-5-7-8/h3-7H,2H2,1H3",MTZQAGJQAFMTAQ-UHFFFAOYSA-N,CCOC(=O)c1ccccc1,-2.3999022404,0.0646548303093888,3,G5,150.177,1.8633,42.39850000000003,11.0,2.0,0.0,2.0,2.0,58.0,1.0,0.0,0.0,1.0,26.3,65.80129679223742,2.6930079504145,228.57786591623355
A-564,3-phenylpropanoic acid,"InChI=1S/C9H10O2/c10-9(11)7-6-8-4-2-1-3-5-8/h1-5H,6-7H2,(H,10,11)",XMIIGOLPHOKFCH-UHFFFAOYSA-N,O=C(O)CCc1ccccc1,-1.4057514128,0.0978757063999999,2,G3,150.177,1.7038,42.39880000000003,11.0,1.0,1.0,2.0,3.0,58.0,1.0,0.0,0.0,1.0,37.3,65.48198531492656,2.453018743531937,228.57786591623355
A-570,"Phenol, styrenated","InChI=1S/C10H10O/c1-3-8-5-6-10(11)9(4-2)7-8/h3-7,11H,1-2H2",GZGSEMRMKBBQGA-UHFFFAOYSA-N,C=Cc1ccc(O)c(C=C)c1,-3.3940626837,1.3854260057999996,2,G2,146.189,2.6782000000000012,48.28880000000002,11.0,1.0,1.0,1.0,2.0,56.0,1.0,0.0,0.0,1.0,20.23,66.3061992649109,3.2178354020244417,286.9242932819157
A-574,2-amino-5-chlorophenol,"InChI=1S/C6H6ClNO/c7-4-1-2-5(8)6(9)3-4/h1-3,9H,8H2",FZCQMIRJCGWWCL-UHFFFAOYSA-N,Nc1ccc(Cl)cc1O,-2.3906599281,0.0,1,G1,143.573,1.6278,37.52920000000001,9.0,2.0,2.0,3.0,0.0,48.0,1.0,0.0,0.0,1.0,46.25,57.86879379558736,3.171678030440915,224.29788705001033
A-575,4-ethoxybenzoic acid,"InChI=1S/C9H10O3/c1-2-12-8-5-3-7(4-6-8)9(10)11/h3-6H,2H2,1H3,(H,10,11)",SHSGDXCJYVZFTP-UHFFFAOYSA-N,CCOc1ccc(C(=O)O)cc1,-2.4548997462,0.0,1,G1,166.17599999999996,1.7835,44.57030000000002,12.0,2.0,1.0,3.0,3.0,64.0,1.0,0.0,0.0,1.0,46.53,70.59553054443344,2.780862288870475,263.6070662599115
A-578,"2,6-dichloro-4-(trifluoromethyl)aniline","InChI=1S/C7H4Cl2F3N/c8-4-1-3(7(10,11)12)2-5(9)6(4)13/h1-2H,13H2",ITNMAZSPBLRJLU-UHFFFAOYSA-N,Nc1c(Cl)cc(C(F)(F)F)cc1Cl,-3.591642752,0.0,1,G1,230.0159999999999,3.5944000000000003,45.8764,13.0,1.0,1.0,6.0,0.0,72.0,1.0,0.0,0.0,1.0,26.02,82.23937459344833,3.292030545545625,311.994919021124
A-587,4-formyl-2-methoxyphenyl 2-methylpropanoate,"InChI=1S/C12H14O4/c1-8(2)12(14)16-10-5-4-9(7-13)6-11(10)15-3/h4-8H,1-3H3",BGKAKRUFBSTALK-UHFFFAOYSA-N,COc1cc(C=O)ccc1OC(=O)C(C)C,-2.5886676064,0.0,1,G1,222.23999999999995,2.0690999999999997,58.85450000000003,16.0,4.0,0.0,4.0,4.0,86.0,1.0,0.0,0.0,1.0,52.6,94.1711904649779,2.954802731740674,396.00527574751527
A-588,toluene,"InChI=1S/C7H8/c1-7-5-3-2-4-6-7/h2-6H,1H3",YXFVVABEGXRONW-UHFFFAOYSA-N,Cc1ccccc1,-2.2062982993,0.0231346988532763,3,G5,92.141,1.99502,31.17899999999999,7.0,0.0,0.0,0.0,0.0,36.0,1.0,0.0,0.0,1.0,0.0,43.79634523389357,3.0214653097240864,129.96566024533826
A-597,"3-(4-ethylphenyl)-2,2-dimethylpropanenitrile","InChI=1S/C13H17N/c1-4-11-5-7-12(8-6-11)9-13(2,3)10-14/h5-8H,4,9H2,1-3H3",NWMCCMGWYCKNJR-UHFFFAOYSA-N,CCc1ccc(CC(C)(C)C#N)cc1,-3.3513392636000003,0.0,1,G1,187.286,3.341280000000002,58.91800000000004,14.0,1.0,0.0,1.0,3.0,74.0,1.0,0.0,0.0,1.0,23.79,86.37857760174195,2.7486300162092823,327.2483499978795
A-601,ethoxybenzene,"InChI=1S/C8H10O/c1-2-9-8-6-4-3-5-7-8/h3-7H,2H2,1H3",DLRJIFUOBPOJNS-UHFFFAOYSA-N,CCOc1ccccc1,-2.3318416428,0.5739888603000001,2,G2,122.16699999999996,2.0853,37.61100000000001,9.0,1.0,0.0,1.0,2.0,48.0,1.0,0.0,0.0,1.0,9.23,55.274832577797056,2.61489994009295,157.4784207656209
A-606,prop-2-en-1-yl 2-phenoxyacetate,"InChI=1S/C11H12O3/c1-2-8-13-11(12)9-14-10-6-4-3-5-7-10/h2-7H,1,8-9H2",VUFZVGQUAVDKMC-UHFFFAOYSA-N,C=CCOC(=O)COc1ccccc1,-2.5363732086,0.0,1,G1,192.21400000000003,1.7946,53.09300000000003,14.0,3.0,0.0,3.0,5.0,74.0,1.0,0.0,0.0,1.0,35.53,82.95512321835328,2.268439796540574,292.660770563408
A-614,"4-amino-2,5-dimethoxy-N-methylbenzenesulfonamide","InChI=1S/C9H14N2O4S/c1-11-16(12,13)9-5-7(14-2)6(10)4-8(9)15-3/h4-5,11H,10H2,1-3H3",CISVVDNATRQDNU-UHFFFAOYSA-N,CNS(=O)(=O)c1cc(OC)c(N)cc1OC,-3.6510805625,0.0,1,G1,246.28799999999995,0.1940999999999997,60.203900000000026,16.0,5.0,2.0,7.0,4.0,90.0,1.0,0.0,0.0,1.0,90.65,94.40384869473635,3.4831918015434837,484.52750703526135
A-622,3-chloroaniline,"InChI=1S/C6H6ClN/c7-5-2-1-3-6(8)4-5/h1-4H,8H2",PNPCRKVUWYDDST-UHFFFAOYSA-N,Nc1cccc(Cl)c1,-1.3733684129,0.0268237251999999,2,G3,127.574,1.9222,35.86440000000001,8.0,1.0,1.0,2.0,0.0,42.0,1.0,0.0,0.0,1.0,26.02,53.07456004339135,3.077660437970554,168.38833891467198
A-625,"2-hexadecan-2-yl-4,6-dimethylphenol","InChI=1S/C24H42O/c1-5-6-7-8-9-10-11-12-13-14-15-16-17-21(3)23-19-20(2)18-22(4)24(23)25/h18-19,21,25H,5-17H2,1-4H3",TVWGHFVGFWIHFN-UHFFFAOYSA-N,CCCCCCCCCCCCCCC(C)c1cc(C)cc(C)c1O,-7.335707322699999,0.4859856381999998,2,G3,346.59900000000005,8.203740000000005,111.6908000000001,25.0,1.0,1.0,1.0,14.0,144.0,1.0,0.0,0.0,1.0,20.23,156.79459493083198,2.045784385643052,463.40857385764144
A-645,phenyl methacrylate,"InChI=1S/C10H10O2/c1-8(2)10(11)12-9-6-4-3-5-7-9/h3-7H,1H2,2H3",QIWKUEJZZCOPFV-UHFFFAOYSA-N,C=C(C)C(=O)Oc1ccccc1,-2.4948513605,0.0,1,G1,162.188,2.1681,46.89100000000003,12.0,2.0,0.0,2.0,2.0,62.0,1.0,0.0,0.0,1.0,26.3,71.47663587444978,2.6503977732748716,287.9667060215555