ID,Name,InChI,InChIKey,SMILES,Solubility,SD,Occurrences,Group,MolWt,MolLogP,MolMR,HeavyAtomCount,NumHAcceptors,NumHDonors,NumHeteroatoms,NumRotatableBonds,NumValenceElectrons,NumAromaticRings,NumSaturatedRings,NumAliphaticRings,RingCount,TPSA,LabuteASA,BalabanJ,BertzCT
A-1538,5-hydroxyisophthalic acid,"InChI=1S/C8H6O5/c9-6-2-4(7(10)11)1-5(3-6)8(12)13/h1-3,9H,(H,10,11)(H,12,13)",QNVNLUSHGRBCLO-UHFFFAOYSA-N,O=C(O)c1cc(O)cc(C(=O)O)c1,-2.005111367,0.2384443164999998,2,G3,182.13099999999997,0.7886,42.025400000000005,13.0,3.0,3.0,5.0,2.0,68.0,1.0,0.0,0.0,1.0,94.83,72.86703280496575,3.263407613099897,336.547177554286
A-1554,"1,2,3-trichlorobenzene",InChI=1S/C6H3Cl3/c7-4-2-1-3-5(8)6(4)9/h1-3H,RELMFMZEBKVZJC-UHFFFAOYSA-N,Clc1cccc(Cl)c1Cl,-4.003482074,0.1164760529598173,5,G5,181.449,3.6468000000000007,41.47200000000001,9.0,0.0,0.0,3.0,0.0,48.0,1.0,0.0,0.0,1.0,0.0,68.34120180014197,3.2478347337367026,199.2929995478469
A-1556,"methyl 2,4-dihydroxy-3,6-dimethylbenzoate","InChI=1S/C10H12O4/c1-5-4-7(11)6(2)9(12)8(5)10(13)14-3/h4,11-12H,1-3H3",UUQHKWMIDYRWHH-UHFFFAOYSA-N,COC(=O)c1c(C)cc(O)c(C)c1O,-4.037430925,0.0,1,G1,196.202,1.5012399999999997,50.585100000000025,14.0,4.0,2.0,4.0,1.0,76.0,1.0,0.0,0.0,1.0,66.76,81.75470641102606,3.437213165629622,382.19865512206513
A-1564,"1,4-dimethoxy-2-nitrobenzene","InChI=1S/C8H9NO4/c1-12-6-3-4-8(13-2)7(5-6)9(10)11/h3-5H,1-2H3",UPTOWXNJLZJTGD-UHFFFAOYSA-N,COc1ccc(OC)c([N+](=O)[O-])c1,-3.0173250802999996,0.0496874598500001,2,G3,183.163,1.612,46.200400000000016,13.0,4.0,0.0,5.0,3.0,70.0,1.0,0.0,0.0,1.0,61.6,75.04135352980374,3.175529228703851,323.920107283953
A-1577,ethyl 3-phenylacrylate,"InChI=1S/C11H12O2/c1-2-13-11(12)9-8-10-6-4-3-5-7-10/h3-9H,2H2,1H3/b9-8+",KBEBGUQPQBELIU-CMDGGOBGSA-N,CCOC(=O)/C=C/c1ccccc1,-3.0130467638,0.0087233818999998,2,G3,176.215,2.2629,52.10900000000003,13.0,2.0,0.0,2.0,3.0,68.0,1.0,0.0,0.0,1.0,26.3,77.8415779888464,2.538214333042918,288.21840549259923
A-1601,"1-methyl-2,4-dinitrobenzene; 2-methyl-1,3-dinitrobenzene","InChI=1S/C7H6N2O4/c1-5-2-3-6(8(10)11)4-7(5)9(12)13/h2-4H,1H3",RMBFBMJGBANMMK-UHFFFAOYSA-N,Cc1ccc([N+](=O)[O-])cc1[N+](=O)[O-],-3.040285322,0.1114341643368585,3,G5,182.135,1.8114200000000005,44.487800000000014,13.0,4.0,0.0,6.0,2.0,68.0,1.0,0.0,0.0,1.0,86.28,73.10229667889317,3.267052212361692,374.75533357431954
A-1606,4-[(3-hydroxypropyl)amino]-3-nitrophenol,"InChI=1S/C9H12N2O4/c12-5-1-4-10-8-3-2-7(13)6-9(8)11(14)15/h2-3,6,10,12-13H,1,4-5H2",VTXBLQLZQLHDIL-UHFFFAOYSA-N,O=[N+]([O-])c1cc(O)ccc1NCCCO,-2.1105897103,0.0251641387999999,2,G3,212.205,1.0946999999999996,54.95370000000002,15.0,5.0,3.0,6.0,5.0,82.0,1.0,0.0,0.0,1.0,95.63,86.31753487318664,2.812006596448641,353.9656228228465
A-1612,"1,2-xylene","InChI=1S/C8H10/c1-7-5-3-4-6-8(7)2/h3-6H,1-2H3",CTQNGGLPUBDAKN-UHFFFAOYSA-N,Cc1ccccc1C,-2.8191677601,0.0321733662692313,5,G5,106.168,2.30344,35.916,8.0,0.0,0.0,0.0,0.0,42.0,1.0,0.0,0.0,1.0,0.0,50.16128734829018,3.134861511345448,156.14811391899892
A-1614,"1,4-xylene","InChI=1S/C8H10/c1-7-3-5-8(2)6-4-7/h3-6H,1-2H3",URLKBWYHVLBVBO-UHFFFAOYSA-N,Cc1ccc(C)cc1,-2.8191677601,0.0321733662692313,5,G5,106.168,2.30344,35.916,8.0,0.0,0.0,0.0,0.0,42.0,1.0,0.0,0.0,1.0,0.0,50.16128734829017,3.0324555320336755,138.89811391899892
A-1619,2-phenylethyl 2-methylpropanoate,"InChI=1S/C12H16O2/c1-10(2)12(13)14-9-8-11-6-4-3-5-7-11/h3-7,10H,8-9H2,1-2H3",JDQVBGQWADMTAM-UHFFFAOYSA-N,CC(C)C(=O)OCCc1ccccc1,-3.0797644375,0.0391084439849002,3,G5,192.258,2.4283,55.94300000000004,14.0,2.0,0.0,2.0,4.0,76.0,1.0,0.0,0.0,1.0,26.3,84.89612313542726,2.257507228990447,277.63302033025855
A-1629,O-(4-bromo-2-chlorophenyl) O-ethyl S-propyl thiophosphate,"InChI=1S/C11H15BrClO3PS/c1-3-7-18-17(14,15-4-2)16-11-6-5-9(12)8-10(11)13/h5-6,8H,3-4,7H2,1-2H3",QYMMJNLHFKGANY-UHFFFAOYSA-N,CCCSP(=O)(OCC)Oc1ccc(Br)cc1Cl,-4.365622838,0.1201660776499999,2,G3,373.636,5.7691000000000034,81.76150000000004,18.0,4.0,0.0,7.0,7.0,102.0,1.0,0.0,0.0,1.0,35.53,124.9886530478484,2.8510032626884056,444.2965436360365
A-1640,"2,3,6-trimethylphenol","InChI=1S/C9H12O/c1-6-4-5-7(2)9(10)8(6)3/h4-5,10H,1-3H3",QQOMQLYQAXGHSU-UHFFFAOYSA-N,Cc1ccc(C)c(O)c1C,-1.9355008883,0.0231843712999999,2,G3,136.194,2.3174600000000005,42.31780000000001,10.0,1.0,1.0,1.0,0.0,54.0,1.0,0.0,0.0,1.0,20.23,61.32046321488279,3.3421538077705124,224.150333363576
A-1643,"1,3-xylene","InChI=1S/C8H10/c1-7-4-3-5-8(2)6-7/h3-6H,1-2H3",IVSZLXZYQVIEFR-UHFFFAOYSA-N,Cc1cccc(C)c1,-2.8328690377999997,0.0751812379635976,6,G5,106.168,2.30344,35.916,8.0,0.0,0.0,0.0,0.0,42.0,1.0,0.0,0.0,1.0,0.0,50.16128734829017,3.077660437970554,159.89811391899892
A-1662,"1,2-dimethyl-3-nitrobenzene","InChI=1S/C8H9NO2/c1-6-4-3-5-8(7(6)2)9(10)11/h3-5H,1-2H3",FVHAWXWFPBPFOS-UHFFFAOYSA-N,Cc1cccc([N+](=O)[O-])c1C,-3.0033599893000003,0.0539526986999998,2,G3,151.165,2.21164,42.57040000000002,11.0,2.0,0.0,3.0,1.0,58.0,1.0,0.0,0.0,1.0,43.14,64.81426307078998,3.273580821537543,294.14357423078934
A-1677,4-isopropylbenzonitrile,"InChI=1S/C10H11N/c1-8(2)10-5-3-9(7-11)4-6-10/h3-6,8H,1-2H3",YFDJCWXBKWRDPW-UHFFFAOYSA-N,CC(C)c1ccc(C#N)cc1,-2.9887953027,0.0,1,G1,145.20499999999996,2.681680000000001,45.24600000000003,11.0,1.0,0.0,1.0,1.0,56.0,1.0,0.0,0.0,1.0,23.79,67.2837512585521,2.938904553897646,263.91940577975225
A-1678,"1,2-bis(prop-2-en-1-yl) benzene-1,2-dicarboxylate","InChI=1S/C14H14O4/c1-3-9-17-13(15)11-7-5-6-8-12(11)14(16)18-10-4-2/h3-8H,1-2,9-10H2",QUDWYFHPNIMBFC-UHFFFAOYSA-N,C=CCOC(=O)c1ccccc1C(=O)OCC=C,-3.2211356868000003,0.2862505989156169,4,G5,246.26199999999992,2.3722000000000003,67.40100000000002,18.0,4.0,0.0,4.0,6.0,94.0,1.0,0.0,0.0,1.0,52.60000000000001,105.52186862940262,2.907709957142368,419.6167252520633
A-1686,"N,N-dimethylaniline","InChI=1S/C8H11N/c1-9(2)8-6-4-3-5-7-8/h3-7H,1-2H3",JLTDJTHDQAWBAV-UHFFFAOYSA-N,CN(C)c1ccccc1,-1.9220736974,0.0410933781,2,G3,121.18299999999996,1.7526,40.76900000000002,9.0,1.0,0.0,1.0,1.0,48.0,1.0,0.0,0.0,1.0,3.24,55.92112101849355,2.848234050597751,167.1823264341432
A-1687,"1-chloro-2,5-dimethoxy-4-nitrobenzene","InChI=1S/C8H8ClNO4/c1-13-7-4-6(10(11)12)8(14-2)3-5(7)9/h3-4H,1-2H3",ORLPGMKKCAEWOW-UHFFFAOYSA-N,COc1cc([N+](=O)[O-])c(OC)cc1Cl,-3.1793123652999995,0.0,1,G1,217.608,2.2654000000000005,51.21040000000001,14.0,4.0,0.0,6.0,3.0,76.0,1.0,0.0,0.0,1.0,61.6,85.3446197566854,3.3196563058007738,366.60406633371366
A-1690,(2E)-3-phenylprop-2-enal,InChI=1S/C9H8O/c10-8-4-7-9-5-2-1-3-6-9/h1-8H/b7-4+,KJPRLNWUNMBNBZ-QPJJXVBHSA-N,O=C/C=C/c1ccccc1,-1.9688182578,0.1188252760161906,3,G5,132.16199999999998,1.8987,41.54000000000002,10.0,1.0,0.0,1.0,2.0,50.0,1.0,0.0,0.0,1.0,17.07,59.998148530546295,2.758767000615443,223.7433990600969
A-1694,N-(4-hydroxyphenyl)acetamide,"InChI=1S/C8H9NO2/c1-6(10)9-7-2-4-8(11)5-3-7/h2-5,11H,1H3,(H,9,10)",RZVAJINKPMORJF-UHFFFAOYSA-N,CC(=O)Nc1ccc(O)cc1,-1.0333232127,0.0793162856566452,3,G5,151.165,1.3505999999999998,42.41050000000002,11.0,2.0,2.0,3.0,1.0,58.0,1.0,0.0,0.0,1.0,49.33,64.66690538413799,2.7362980721056545,253.29949758389105
A-1701,2-methyl-4-nitroaniline,"InChI=1S/C7H8N2O2/c1-5-4-6(9(10)11)2-3-7(5)8/h2-4H,8H2,1H3",XTTIQGSLJBWVIV-UHFFFAOYSA-N,Cc1cc([N+](=O)[O-])ccc1N,-3.0361524841,0.0,1,G1,152.153,1.48542,42.24580000000001,11.0,3.0,1.0,4.0,1.0,58.0,1.0,0.0,0.0,1.0,69.16,63.789211653406085,3.1515496683060507,296.4920897763861
A-1716,2-phenylpropane-2-peroxol,"InChI=1S/C9H12O2/c1-9(2,11-10)8-6-4-3-5-7-8/h3-7,10H,1-2H3",YQHLDYVWEZKEOX-UHFFFAOYSA-N,CC(C)(OO)c1ccccc1,-1.0393798776,0.0,1,G1,152.19299999999998,2.4113000000000007,43.181800000000024,11.0,2.0,1.0,2.0,2.0,60.0,1.0,0.0,0.0,1.0,29.46,66.36330376012798,2.9284445313943723,216.26415929370793
A-1726,2-phenylethyl propanoate,"InChI=1S/C11H14O2/c1-2-11(12)13-9-8-10-6-4-3-5-7-10/h3-7H,2,8-9H2,1H3",HVGZQCSMLUDISR-UHFFFAOYSA-N,CCC(=O)OCCc1ccccc1,-3.1174443354,0.0,1,G1,178.23100000000002,2.1822999999999997,51.39600000000003,13.0,2.0,0.0,2.0,4.0,70.0,1.0,0.0,0.0,1.0,26.3,78.53118102103066,2.2413765431693933,254.05260581186823
A-1727,benzyl butanoate,"InChI=1S/C11H14O2/c1-2-6-11(12)13-9-10-7-4-3-5-8-10/h3-5,7-8H,2,6,9H2,1H3",VONGZNXBKCOUHB-UHFFFAOYSA-N,CCCC(=O)OCc1ccccc1,-3.1174443354,0.1583435492,2,G3,178.231,2.5299000000000005,51.14600000000003,13.0,2.0,0.0,2.0,4.0,70.0,1.0,0.0,0.0,1.0,26.3,78.53118102103066,2.310042822879905,254.05260581186823
A-1728,2-amino-5-acetamidobenzene-1-sulfonic acid,"InChI=1S/C8H10N2O4S/c1-5(11)10-6-2-3-7(9)8(4-6)15(12,13)14/h2-4H,9H2,1H3,(H,10,11)(H,12,13,14)",PHRVJZNHPVJYOM-UHFFFAOYSA-N,CC(=O)Nc1ccc(N)c(S(=O)(=O)O)c1,-1.2318564393,0.0,1,G1,230.245,0.4739,54.97270000000001,15.0,4.0,3.0,7.0,2.0,82.0,1.0,0.0,0.0,1.0,109.49,86.84119833899531,3.231502193499952,495.3631752810376
A-1735,"2,4-dimethyl-1-nitrobenzene","InChI=1S/C8H9NO2/c1-6-3-4-8(9(10)11)7(2)5-6/h3-5H,1-2H3",BBUPBICWUURTNP-UHFFFAOYSA-N,Cc1ccc([N+](=O)[O-])c(C)c1,-3.0555996074,0.0,1,G1,151.165,2.21164,42.57040000000002,11.0,2.0,0.0,3.0,1.0,58.0,1.0,0.0,0.0,1.0,43.14,64.81426307078998,3.1960696621259204,294.14357423078934
A-1740,3-(4-tert-butylphenyl)propanal,"InChI=1S/C13H18O/c1-13(2,3)12-8-6-11(7-9-12)5-4-10-14/h6-10H,4-5H2,1-3H3",FZJUFJKVIYFBSY-UHFFFAOYSA-N,CC(C)(C)c1ccc(CCC=O)cc1,-3.1588329056999997,0.0,1,G1,190.28599999999997,3.1156000000000024,59.52700000000005,14.0,1.0,0.0,1.0,3.0,76.0,1.0,0.0,0.0,1.0,17.07,86.147520020317,2.7334971039769465,290.00675601892755
A-1741,"3,5-dinitrobenzoic acid","InChI=1S/C7H4N2O6/c10-7(11)4-1-5(8(12)13)3-6(2-4)9(14)15/h1-3H,(H,10,11)",VYWYYJYRVSBHJQ-UHFFFAOYSA-N,O=C(O)c1cc([N+](=O)[O-])cc([N+](=O)[O-])c1,-2.2076497234,0.0057248616999998,2,G3,212.11699999999996,1.2011999999999998,46.7101,15.0,5.0,1.0,8.0,3.0,78.0,1.0,0.0,0.0,1.0,123.58,82.05805253113294,3.387380075453351,375.78652693972816
A-1770,sodium 2-hydroxybenzoate,"InChI=1S/C7H6O3.Na/c8-6-4-2-1-3-5(6)7(9)10;/h1-4,8H,(H,9,10);/q;+1/p-1",ABBQHOQBGMUPJH-UHFFFAOYSA-M,O=C([O-])c1ccccc1O.[Na+],-0.1074921693999999,0.4524047572444348,4,G5,160.10399999999996,-3.240299999999998,32.43729999999999,11.0,3.0,1.0,4.0,1.0,52.0,1.0,0.0,0.0,1.0,60.36,85.95973446104132,9.999998370000272e-07,259.6175282804537
A-1772,1-phenylvinyl acetate,"InChI=1S/C10H10O2/c1-8(12-9(2)11)10-6-4-3-5-7-10/h3-7H,1H2,2H3",HWCUCNKPBMGSSC-UHFFFAOYSA-N,C=C(OC(C)=O)c1ccccc1,-2.1135953878,0.0,1,G1,162.18800000000002,2.2203999999999997,47.242000000000026,12.0,2.0,0.0,2.0,2.0,62.0,1.0,0.0,0.0,1.0,26.3,71.47663587444978,2.725078186491341,287.9667060215555
A-1775,"1,3-dichlorobenzene",InChI=1S/C6H4Cl2/c7-5-2-1-3-6(8)4-5/h1-4H,ZPQOPVIELGIULI-UHFFFAOYSA-N,Clc1cccc(Cl)c1,-3.0721598006999997,0.0337374274553604,3,G5,147.004,2.993400000000001,36.46200000000001,8.0,0.0,0.0,2.0,0.0,42.0,1.0,0.0,0.0,1.0,0.0,58.037935573260306,3.077660437970554,166.38833891467198
A-1776,2-(2-methylphenyl)ethanol,"InChI=1S/C9H12O/c1-8-4-2-3-5-9(8)6-7-10/h2-5,10H,6-7H2,1H3",RUGISKODRCWQNE-UHFFFAOYSA-N,Cc1ccccc1CCO,-1.042878011,0.0,1,G1,136.19400000000002,1.52982,41.968800000000016,10.0,1.0,1.0,1.0,2.0,54.0,1.0,0.0,0.0,1.0,20.23,61.32046321488279,2.811180917188401,205.6381691811921
A-1779,"4-chlorobenzene-1,3-diol","InChI=1S/C6H5ClO2/c7-5-2-1-4(8)3-6(5)9/h1-3,8-9H",JQVAPEJNIZULEK-UHFFFAOYSA-N,Oc1ccc(Cl)c(O)c1,-1.070567643,0.9361642785820036,3,G4,144.55700000000002,1.7512,34.781600000000005,9.0,2.0,2.0,3.0,0.0,48.0,1.0,0.0,0.0,1.0,40.46,57.32313685077066,3.1716780304409156,222.29788705001033
A-1782,"1,2-dichloro-4-nitrobenzene",InChI=1S/C6H3Cl2NO2/c7-5-2-1-4(9(10)11)3-6(5)8/h1-3H,NTBYINQTYWZXLH-UHFFFAOYSA-N,O=[N+]([O-])c1ccc(Cl)c(Cl)c1,-3.2005181203,0.0,1,G1,192.001,2.901600000000001,43.11640000000001,11.0,2.0,0.0,5.0,1.0,58.0,1.0,0.0,0.0,1.0,43.14,72.6909112957601,3.1515496683060507,300.6337992264623
A-1789,N-{4-[(2-hydroxyethyl)sulfonyl]phenyl}acetamide,"InChI=1S/C10H13NO4S/c1-8(13)11-9-2-4-10(5-3-9)16(14,15)7-6-12/h2-5,12H,6-7H2,1H3,(H,11,13)",XIICKRYAUAVEQS-UHFFFAOYSA-N,CC(=O)Nc1ccc(S(=O)(=O)CCO)cc1,-2.3069323017,0.0,1,G1,243.28399999999996,0.4109999999999998,59.88430000000003,16.0,4.0,2.0,6.0,4.0,88.0,1.0,0.0,0.0,1.0,83.47,94.0221879947178,2.9054696664014155,464.0973261036955
A-1791,propiophenone,"InChI=1S/C9H10O/c1-2-9(10)8-6-4-3-5-7-8/h3-7H,2H2,1H3",KRIOVPPHQSLHCZ-UHFFFAOYSA-N,CCC(=O)c1ccccc1,-2.0485000681,0.11090003405,2,G3,134.17799999999997,2.2793,41.063500000000026,10.0,1.0,0.0,1.0,2.0,52.0,1.0,0.0,0.0,1.0,17.07,60.68775156273055,2.8526279288191434,213.42969243757128
A-1792,4-tert-butylbenzaldehyde,"InChI=1S/C11H14O/c1-11(2,3)10-6-4-9(8-12)5-7-10/h4-8H,1-3H3",OTXINXDGSUFPNU-UHFFFAOYSA-N,CC(C)(C)c1ccc(C=O)cc1,-3.1309552762,0.0512123497323335,3,G5,162.23199999999997,2.7966000000000015,50.529500000000034,12.0,1.0,0.0,1.0,1.0,64.0,1.0,0.0,0.0,1.0,17.07,73.41763579152378,2.99883701071891,264.0507411272592
A-1800,"(4-tert-butyl-3-hydroxy-2,6-dimethylphenyl)acetonitrile","InChI=1S/C14H19NO/c1-9-8-12(14(3,4)5)13(16)10(2)11(9)6-7-15/h8,16H,6H2,1-5H3",OUKJZHRCKQJXSU-UHFFFAOYSA-N,Cc1cc(C(C)(C)C)c(O)c(C)c1CC#N,-4.2579024627,0.0,1,G1,217.31199999999995,3.372620000000002,65.59780000000003,16.0,2.0,1.0,2.0,1.0,86.0,1.0,0.0,0.0,1.0,44.02,97.53775346833456,3.4658065508371094,447.27386271095736
A-1802,"diethyl (3,5-di-tert-butyl-4-hydroxybenzyl)phosphonate","InChI=1S/C19H33O4P/c1-9-22-24(21,23-10-2)13-14-11-15(18(3,4)5)17(20)16(12-14)19(6,7)8/h11-12,20H,9-10,13H2,1-8H3",GJDRKHHGPHLVNI-UHFFFAOYSA-N,CCOP(=O)(Cc1cc(C(C)(C)C)c(O)c(C(C)(C)C)c1)OCC,-4.4728088442,0.0,1,G1,356.44300000000015,5.753300000000006,100.06930000000008,24.0,4.0,1.0,5.0,6.0,138.0,1.0,0.0,0.0,1.0,55.760000000000005,146.6599152342105,3.4613332696716355,563.7684071248065
A-1807,2-nitrophenyl acetate,"InChI=1S/C8H7NO4/c1-6(10)13-8-5-3-2-4-7(8)9(11)12/h2-5H,1H3",MRCKRGSNLOHYRA-UHFFFAOYSA-N,CC(=O)Oc1ccccc1[N+](=O)[O-],-2.1855239105,0.0,1,G1,181.14699999999996,1.5200999999999998,44.405400000000014,13.0,4.0,0.0,5.0,2.0,68.0,1.0,0.0,0.0,1.0,69.44,74.08933040034063,3.0435273546341013,347.7521927396972
A-1815,1-(chloromethyl)-2-methylbenzene,"InChI=1S/C8H9Cl/c1-7-4-2-3-5-8(7)6-9/h2-5H,6H2,1H3",VQRBXYBBGHOGFT-UHFFFAOYSA-N,Cc1ccccc1CCl,-3.0813269237,0.0,1,G1,140.613,2.7338200000000006,40.73600000000002,9.0,0.0,0.0,1.0,1.0,48.0,1.0,0.0,0.0,1.0,0.0,60.464553575171855,3.0065240073265844,193.51405299160075
A-1816,prop-1-en-2-ylbenzene,"InChI=1S/C9H10/c1-8(2)9-6-4-3-5-7-9/h3-7H,1H2,2H3",XYLMUPLGERFSHI-UHFFFAOYSA-N,C=C(C)c1ccccc1,-3.0080823215,0.3385306355058569,3,G5,118.17899999999996,2.7197000000000005,41.15000000000002,9.0,0.0,0.0,0.0,1.0,46.0,1.0,0.0,0.0,1.0,0.0,55.83662643050253,2.981454614041131,196.53811204568345
A-1817,2-methoxy-4-(prop-2-en-1-yl)phenol,"InChI=1S/C10H12O2/c1-3-4-8-5-6-9(11)10(7-8)12-2/h3,5-7,11H,1,4H2,2H3",RRAFCDWBNXTKKO-UHFFFAOYSA-N,C=CCc1ccc(O)c(OC)c1,-2.1531779235,0.2954889617499999,2,G3,164.204,2.1293,48.55980000000003,12.0,2.0,1.0,2.0,3.0,64.0,1.0,0.0,0.0,1.0,29.46,72.10934752660204,2.95955954722478,279.16711032401867
A-1823,"1,3-difluorobenzene",InChI=1S/C6H4F2/c7-5-2-1-3-6(8)4-5/h1-4H,UEMGWPRHOOEKTA-UHFFFAOYSA-N,Fc1cccc(F)c1,-2.0003579549,0.0,1,G1,114.094,1.9648,26.357999999999997,8.0,0.0,0.0,2.0,0.0,42.0,1.0,0.0,0.0,1.0,0.0,45.76247392534943,3.077660437970554,166.38833891467198
A-1839,"1,2-bis(2-methylpropyl) benzene-1,2-dicarboxylate","InChI=1S/C16H22O4/c1-11(2)9-19-15(17)13-7-5-6-8-14(13)16(18)20-10-12(3)4/h5-8,11-12H,9-10H2,1-4H3",MGWAVDBGNNKXQV-UHFFFAOYSA-N,CC(C)COC(=O)c1ccccc1C(=O)OCC(C)C,-4.3838902648,0.2227868881566086,5,G5,278.348,3.3122000000000025,76.68300000000005,20.0,4.0,0.0,4.0,6.0,110.0,1.0,0.0,0.0,1.0,52.60000000000001,119.63095892256436,2.815925753105677,420.29960603265533
A-1859,(2E)-3-phenylprop-2-enenitrile,InChI=1S/C9H7N/c10-8-4-7-9-5-2-1-3-6-9/h1-7H/b7-4+,ZWKNLRXFUTWSOY-QPJJXVBHSA-N,N#C/C=C/c1ccccc1,-2.0829703418000003,0.0,1,G1,129.16199999999998,2.2233799999999997,41.08900000000002,10.0,1.0,0.0,1.0,1.0,48.0,1.0,0.0,0.0,1.0,23.79,60.22920611197125,2.789949981500122,253.80679720013123
A-1860,2-[(3-aminophenyl)sulfonyl]ethyl hydrogen sulfate,"InChI=1S/C8H11NO6S2/c9-7-2-1-3-8(6-7)16(10,11)5-4-15-17(12,13)14/h1-3,6H,4-5,9H2,(H,12,13,14)",BCLOBWIFURSERL-UHFFFAOYSA-N,Nc1cccc(S(=O)(=O)CCOS(=O)(=O)O)c1,-1.4238808493,0.0,1,G1,281.311,-0.1380999999999997,60.407800000000016,17.0,6.0,2.0,9.0,5.0,96.0,1.0,0.0,0.0,1.0,123.76,99.077761542695,2.765085557651497,592.1963481728365
A-1864,2-amino-4-sulfobenzoic acid,"InChI=1S/C7H7NO5S/c8-6-3-4(14(11,12)13)1-2-5(6)7(9)10/h1-3H,8H2,(H,9,10)(H,11,12,13)",GRGSHONWRKRWGP-UHFFFAOYSA-N,Nc1cc(S(=O)(=O)O)ccc1C(=O)O,-1.3156745209,0.0,1,G1,217.20199999999997,0.2136999999999999,47.6283,14.0,4.0,3.0,7.0,2.0,76.0,1.0,0.0,0.0,1.0,117.69,79.72062779318667,3.339787385782996,478.8535635303721
A-1865,4-(2-aminoethyl)phenol,"InChI=1S/C8H11NO/c9-6-5-7-1-3-8(10)4-2-7/h1-4,10H,5-6,9H2",DZGWFCGJZKJUFP-UHFFFAOYSA-N,NCCc1ccc(O)cc1,-1.1161078312,0.0,1,G1,137.18199999999996,0.8934,40.86520000000002,10.0,2.0,2.0,2.0,2.0,54.0,1.0,0.0,0.0,1.0,46.25,60.2954117974989,2.693803452362809,192.91749419417292
A-1867,2-butoxyethyl benzoate,"InChI=1S/C13H18O3/c1-2-3-9-15-10-11-16-13(14)12-7-5-4-6-8-12/h4-8H,2-3,9-11H2,1H3",NMBQBIACXMPEQB-UHFFFAOYSA-N,CCCCOCCOC(=O)c1ccccc1,-3.3224225356,0.0,1,G1,222.284,2.660100000000001,62.451500000000046,16.0,3.0,0.0,3.0,7.0,88.0,1.0,0.0,0.0,1.0,35.53,96.37461047933076,2.116728158652159,295.30583312377763
A-1868,2-methoxy-4-nitroaniline,"InChI=1S/C7H8N2O3/c1-12-7-4-5(9(10)11)2-3-6(7)8/h2-4H,8H2,1H3",GVBHRNIWBGTNQA-UHFFFAOYSA-N,COc1cc([N+](=O)[O-])ccc1N,-3.2045127381,0.0,1,G1,168.152,1.1856,44.06080000000001,12.0,4.0,1.0,5.0,2.0,64.0,1.0,0.0,0.0,1.0,78.38999999999999,68.90275688291297,3.1343002499495434,311.5198400095355
A-1871,"3,4,5-trifluorophenol","InChI=1S/C6H3F3O/c7-4-1-3(10)2-5(8)6(4)9/h1-2,10H",ZRTWIJKGTUGZJY-UHFFFAOYSA-N,Oc1cc(F)c(F)c(F)c1,-0.1536096917,0.0,1,G1,148.083,1.8094999999999997,27.9808,10.0,1.0,1.0,4.0,0.0,54.0,1.0,0.0,0.0,1.0,20.23,54.722243080471685,3.310532874722407,236.1649958700664
A-1904,2-hydroxy-4-methylbenzoic acid,"InChI=1S/C8H8O3/c1-5-2-3-6(8(10)11)7(9)4-5/h2-4,9H,1H3,(H,10,11)",NJESAXZANHETJV-UHFFFAOYSA-N,Cc1ccc(C(=O)O)c(O)c1,-1.1822691023,0.8588654488499999,2,G2,152.149,1.39882,39.80310000000001,11.0,2.0,2.0,3.0,1.0,58.0,1.0,0.0,0.0,1.0,57.53,63.91127695272596,3.1960696621259195,291.3886867286258
A-1907,2-hydroxy-5-nitrobenzoic acid,"InChI=1S/C7H5NO5/c9-6-2-1-4(8(12)13)3-5(6)7(10)11/h1-3,9H,(H,10,11)",PPDRLQLKHRZIJC-UHFFFAOYSA-N,O=C(O)c1cc([N+](=O)[O-])ccc1O,-2.2627334080000003,0.1073350824999999,2,G3,183.11899999999997,0.9986,41.72050000000001,13.0,4.0,2.0,6.0,2.0,68.0,1.0,0.0,0.0,1.0,100.67,72.19931056082916,3.267052212361692,373.1456930998827
A-1912,"1,2-dimethyl-4-nitrobenzene","InChI=1S/C8H9NO2/c1-6-3-4-8(9(10)11)5-7(6)2/h3-5H,1-2H3",HFZKOYWDLDYELC-UHFFFAOYSA-N,Cc1ccc([N+](=O)[O-])cc1C,-3.1794512484,0.0,1,G1,151.165,2.21164,42.57040000000002,11.0,2.0,0.0,3.0,1.0,58.0,1.0,0.0,0.0,1.0,43.14,64.81426307078998,3.1515496683060507,294.14357423078934
A-1913,1-chloro-2-(chloromethyl)benzene,"InChI=1S/C7H6Cl2/c8-5-6-3-1-2-4-7(6)9/h1-4H,5H2",BASMANVIUSSIIM-UHFFFAOYSA-N,ClCc1ccccc1Cl,-3.2069094899,0.0,1,G1,161.03099999999995,3.078800000000001,41.009000000000015,9.0,0.0,0.0,2.0,1.0,48.0,1.0,0.0,0.0,1.0,0.0,64.40287768765691,3.0065240073265844,195.86256853719752
A-1914,2-phenylacetonitrile,"InChI=1S/C8H7N/c9-7-6-8-4-2-1-3-5-8/h1-5H,6H2",SUSQOBVLVYHIEX-UHFFFAOYSA-N,N#CCc1ccccc1,-3.0687460001,0.0,1,G1,117.15099999999995,1.75268,35.75900000000001,9.0,1.0,0.0,1.0,1.0,44.0,1.0,0.0,0.0,1.0,23.79,54.55386702975889,2.756899621214729,207.75928651033232
A-1921,sodium dodecylbenzenesulfonate,"InChI=1S/C18H30O3S.Na/c1-2-3-4-5-6-7-8-9-10-14-17-21-22(19,20)18-15-12-11-13-16-18;/h11-13,15-16H,2-10,14,17H2,1H3;",GVGUFUZHNYFZLC-UHFFFAOYSA-N,CCCCCCCCCCCCOS(=O)(=O)c1ccccc1.[Na],-3.5434372389999997,0.4515449935,2,G3,349.492,4.932000000000005,97.17780000000008,23.0,3.0,0.0,5.0,13.0,127.0,1.0,0.0,0.0,1.0,43.370000000000005,164.1720556023197,4.839993903808018e-06,474.2998820159188