ID,Name,InChI,InChIKey,SMILES,Solubility,SD,Occurrences,Group,MolWt,MolLogP,MolMR,HeavyAtomCount,NumHAcceptors,NumHDonors,NumHeteroatoms,NumRotatableBonds,NumValenceElectrons,NumAromaticRings,NumSaturatedRings,NumAliphaticRings,RingCount,TPSA,LabuteASA,BalabanJ,BertzCT
C-1275,2-benzoyloxy-n-[(tris-hydroxymethyl)methyl]acetamide,"InChI=1S/C13H17NO6/c15-7-13(8-16,9-17)14-11(18)6-20-12(19)10-4-2-1-3-5-10/h1-5,15-17H,6-9H2,(H,14,18)",MSMHOCZOEWMZOH-UHFFFAOYSA-N,O=C(COC(=O)c1ccccc1)NC(CO)(CO)CO,-1.27,0.0,1,G1,283.28,-1.3246999999999995,68.85560000000004,20.0,6.0,4.0,7.0,7.0,110.0,1.0,0.0,0.0,1.0,116.09,115.35515079006376,2.4953698117395273,435.1697574255827
C-1276,n-(2-benzoyloxyacetyl)-n-methylglycineamide,"InChI=1S/C12H14N2O4/c1-14(7-10(13)15)11(16)8-18-12(17)9-5-3-2-4-6-9/h2-6H,7-8H2,1H3,(H2,13,15)",DLVAUVPZQHGFJC-UHFFFAOYSA-N,CN(CC(N)=O)C(=O)COC(=O)c1ccccc1,-0.92,0.0,1,G1,250.254,-0.2128999999999994,63.55590000000003,18.0,4.0,1.0,6.0,5.0,96.0,1.0,0.0,0.0,1.0,89.69999999999999,104.3188917027309,2.4358372724104784,444.6504493917948
C-1280,"2-benzoyloxy-n,n-bis(2-methoxyethyl)acetamide; n,n-bis(2-methoxyethyl)-2-benzoyloxyacetamide","InChI=1S/C15H21NO5/c1-19-10-8-16(9-11-20-2)14(17)12-21-15(18)13-6-4-3-5-7-13/h3-7H,8-12H2,1-2H3",LJCFRMUKLSCNKV-UHFFFAOYSA-N,COCCN(CCOC)C(=O)COC(=O)c1ccccc1,-1.57,0.0,1,G1,295.335,0.9648000000000004,77.05650000000004,21.0,5.0,0.0,6.0,9.0,116.0,1.0,0.0,0.0,1.0,65.07,124.13939570787802,2.462570755217296,426.94993424311554
C-1281,carbamoylmethyl  acetylsalicylate;  2-(2-acetoxybenzoyloxy)acetamide,"InChI=1S/C11H11NO5/c1-7(13)17-9-5-3-2-4-8(9)11(15)16-6-10(12)14/h2-5H,6H2,1H3,(H2,12,14)",KVNWJGCJKBJLRM-UHFFFAOYSA-N,CC(=O)Oc1ccccc1C(=O)OCC(N)=O,-1.79,0.0,1,G1,237.21099999999993,0.2540000000000001,57.22790000000002,17.0,5.0,1.0,6.0,4.0,90.0,1.0,0.0,0.0,1.0,95.69,97.30766114763776,2.845282327965075,454.9299418941322
C-1287,ethyl n-(benzoyloxyacetyl)-n-methylglycinate; n-(benzoyloxyacetyl)-n-methylglycine ethyl ester,"InChI=1S/C14H17NO5/c1-3-19-13(17)9-15(2)12(16)10-20-14(18)11-7-5-4-6-8-11/h4-8H,3,9-10H2,1-2H3",VPGYQOPHCDIWSQ-UHFFFAOYSA-N,CCOC(=O)CN(C)C(=O)COC(=O)c1ccccc1,-1.67,0.0,1,G1,279.292,0.8648999999999991,70.99450000000003,20.0,5.0,0.0,6.0,6.0,108.0,1.0,0.0,0.0,1.0,72.91,116.82243046401828,2.3915140285532472,471.7124239313976
C-1295,n-ethyl-2-[(2-acetoxy)benzoyloxy]acetamide,"InChI=1S/C13H15NO5/c1-3-14-12(16)8-18-13(17)10-6-4-5-7-11(10)19-9(2)15/h4-7H,3,8H2,1-2H3,(H,14,16)",QZTDIROWVCZJJV-UHFFFAOYSA-N,CCNC(=O)COC(=O)c1ccccc1OC(C)=O,-1.68,0.0,1,G1,265.265,0.9047999999999998,66.71720000000003,19.0,5.0,1.0,6.0,5.0,102.0,1.0,0.0,0.0,1.0,81.69999999999999,110.24751686302632,2.7079203234618734,483.6768498598873
C-1297,ethoxycarbonylmetyl  acetylsalicylate;  2-(2-acetoxybenzoyloxy)acetic acid ethyl ester,"InChI=1S/C13H14O6/c1-3-17-12(15)8-18-13(16)10-6-4-5-7-11(10)19-9(2)14/h4-7H,3,8H2,1-2H3",HFSBGVJICLMJRK-UHFFFAOYSA-N,CCOC(=O)COC(=O)c1ccccc1OC(C)=O,-2.58,0.0,1,G1,266.249,1.3318,64.66650000000003,19.0,6.0,0.0,6.0,5.0,102.0,1.0,0.0,0.0,1.0,78.9,109.81119990892516,2.7079203234618734,479.7767153299971
C-1298,"n,n-dimethyl-2-[(2-acetoxy)benzoyloxy]acetamide","InChI=1S/C13H15NO5/c1-9(15)19-11-7-5-4-6-10(11)13(17)18-8-12(16)14(2)3/h4-7H,8H2,1-3H3",FDTMXYKUFIZEMG-UHFFFAOYSA-N,CC(=O)Oc1ccccc1C(=O)OCC(=O)N(C)C,-1.55,0.0,1,G1,265.265,0.8568999999999998,66.72750000000003,19.0,5.0,0.0,6.0,4.0,102.0,1.0,0.0,0.0,1.0,72.91,110.45748834962166,2.7639609424452902,495.56187299772625
C-1299,"n4-formyl-n1,n1,n4-trimethylsulfanilamide; n-[(4-dimethylsulfamoyl)phenyl]-n-methylformamide","InChI=1S/C10H14N2O3S/c1-11(2)16(14,15)10-6-4-9(5-7-10)12(3)8-13/h4-8H,1-3H3",XSDPZPWLUUGYHH-UHFFFAOYSA-N,CN(C=O)c1ccc(S(=O)(=O)N(C)C)cc1,-2.37,0.0,1,G1,242.3,0.5295000000000001,61.78180000000004,16.0,3.0,0.0,6.0,4.0,88.0,1.0,0.0,0.0,1.0,57.690000000000005,95.333136909949,3.0917871372698,465.342438601532
C-1316,"n1,n1,n4-trimethyl-n4-acetylsulfanilamide","InChI=1S/C11H16N2O3S/c1-9(14)13(4)10-5-7-11(8-6-10)17(15,16)12(2)3/h5-8H,1-4H3",YDHAYUGJQGJRIJ-UHFFFAOYSA-N,CC(=O)N(C)c1ccc(S(=O)(=O)N(C)C)cc1,-2.3,0.0,1,G1,256.327,0.9196000000000002,66.39880000000004,17.0,3.0,0.0,6.0,3.0,94.0,1.0,0.0,0.0,1.0,57.690000000000005,101.69807902434562,3.088324265626195,506.02301043424825
C-1318,metalaxyl;  apron   (racemate),"InChI=1S/C15H21NO4/c1-10-7-6-8-11(2)14(10)16(13(17)9-19-4)12(3)15(18)20-5/h6-8,12H,9H2,1-5H3",ZQEIXNIJLIKNTD-UHFFFAOYSA-N,COCC(=O)N(c1c(C)cccc1C)C(C)C(=O)OC,-1.6,0.03905,2,G3,279.336,1.84434,76.75600000000004,20.0,4.0,0.0,5.0,5.0,110.0,1.0,0.0,0.0,1.0,55.84,119.0258504783711,3.29996676443239,478.3969225140251
C-1319,"(n,n-diethyl)carbamoylmethyl  acetylsalicylate;  n,n-diethyl-2-(2-acetoxybenzoyloxy)acetamide","InChI=1S/C15H19NO5/c1-4-16(5-2)14(18)10-20-15(19)12-8-6-7-9-13(12)21-11(3)17/h6-9H,4-5,10H2,1-3H3",HEFOCUJBDCFYAR-UHFFFAOYSA-N,CCN(CC)C(=O)COC(=O)c1ccccc1OC(C)=O,-2.11,0.0,1,G1,293.3190000000001,1.6370999999999998,75.96150000000004,21.0,5.0,0.0,6.0,6.0,114.0,1.0,0.0,0.0,1.0,72.91,123.18737257841488,2.719747440512065,522.5501913967826
C-1333,"n1,n1,n4-trimethyl-n4-propanoylsulfanilamide","InChI=1S/C12H18N2O3S/c1-5-12(15)14(4)10-6-8-11(9-7-10)18(16,17)13(2)3/h6-9H,5H2,1-4H3",ZCPRMRBJNJMHRJ-UHFFFAOYSA-N,CCC(=O)N(C)c1ccc(S(=O)(=O)N(C)C)cc1,-2.48,0.0,1,G1,270.354,1.3097,71.01580000000004,18.0,3.0,0.0,6.0,4.0,100.0,1.0,0.0,0.0,1.0,57.690000000000005,108.0630211387422,3.043130923186281,520.7584341088167
C-1343,2-acetoxybenzoic acid dipropylcarbamoylmethyl ester,"InChI=1S/C17H23NO5/c1-4-10-18(11-5-2)16(20)12-22-17(21)14-8-6-7-9-15(14)23-13(3)19/h6-9H,4-5,10-12H2,1-3H3",XCEUBKDKAYYEQR-UHFFFAOYSA-N,CCCN(CCC)C(=O)COC(=O)c1ccccc1OC(C)=O,-2.65,0.0,1,G1,321.3730000000001,2.417300000000001,85.19550000000005,23.0,5.0,0.0,6.0,8.0,126.0,1.0,0.0,0.0,1.0,72.91,135.9172568072081,2.692325794781945,549.6696378072911
C-1345,n-[2-(2-acetoxybenzoyloxy)acetyl]glycineamide,"InChI=1S/C13H14N2O6/c1-8(16)21-10-5-3-2-4-9(10)13(19)20-7-12(18)15-6-11(14)17/h2-5H,6-7H2,1H3,(H2,14,17)(H,15,18)",UDKPETZNUFLIFG-UHFFFAOYSA-N,CC(=O)Oc1ccccc1C(=O)OCC(=O)NCC(N)=O,-2.52,0.0,1,G1,294.263,-0.629799999999999,70.23760000000001,21.0,6.0,2.0,8.0,6.0,112.0,1.0,0.0,0.0,1.0,124.79000000000002,119.7489296600828,2.614131179383632,569.5348419820677
C-1346,"n1,n1,n4-trimethyl-n4-(butanoyl)sulfanilamide","InChI=1S/C13H20N2O3S/c1-5-6-13(16)15(4)11-7-9-12(10-8-11)19(17,18)14(2)3/h7-10H,5-6H2,1-4H3",HVRPQVNLNIHIRC-UHFFFAOYSA-N,CCCC(=O)N(C)c1ccc(S(=O)(=O)N(C)C)cc1,-2.16,0.0,1,G1,284.38100000000003,1.6998,75.63280000000005,19.0,3.0,0.0,6.0,5.0,106.0,1.0,0.0,0.0,1.0,57.690000000000005,114.4279632531388,2.9734460483914136,535.5116863613051
C-1348,"n,n-diethyl-2-[(2-acetoxy)benzoyloxy]propanoic acid amide","InChI=1S/C16H21NO5/c1-5-17(6-2)15(19)11(3)21-16(20)13-9-7-8-10-14(13)22-12(4)18/h7-11H,5-6H2,1-4H3",OHSFPCVLIJXOLL-UHFFFAOYSA-N,CCN(CC)C(=O)C(C)OC(=O)c1ccccc1OC(C)=O,-1.6,0.0,1,G1,307.34600000000006,2.0256,80.55650000000004,22.0,5.0,0.0,6.0,6.0,120.0,1.0,0.0,0.0,1.0,72.91,129.55231469281148,2.848590135685469,551.2220767292561
C-1349,2-acetoxybenzoic acid diisopropylcarbamoylmethyl ester,"InChI=1S/C17H23NO5/c1-11(2)18(12(3)4)16(20)10-22-17(21)14-8-6-7-9-15(14)23-13(5)19/h6-9,11-12H,10H2,1-5H3",WRGWFXXPBRCSIH-UHFFFAOYSA-N,CC(=O)Oc1ccccc1C(=O)OCC(=O)N(C(C)C)C(C)C,-3.25,0.0,1,G1,321.3730000000001,2.4141000000000004,85.15150000000006,23.0,5.0,0.0,6.0,6.0,126.0,1.0,0.0,0.0,1.0,72.91,135.9172568072081,2.774875538732111,572.1013881643781
C-1358,"n1,n1,n4-trimethyl-n4-pentanoylsulfanilamide","InChI=1S/C14H22N2O3S/c1-5-6-7-14(17)16(4)12-8-10-13(11-9-12)20(18,19)15(2)3/h8-11H,5-7H2,1-4H3",HCFYDULVKOUISH-UHFFFAOYSA-N,CCCCC(=O)N(C)c1ccc(S(=O)(=O)N(C)C)cc1,-2.85,0.0,1,G1,298.4080000000001,2.0899,80.24980000000005,20.0,3.0,0.0,6.0,6.0,112.0,1.0,0.0,0.0,1.0,57.690000000000005,120.7929053675354,2.891153108975224,550.2866774375368
C-1372,"n1,n1-dimethyl-n4-hexanoyl-n4-methylsulfanilamide; n-[(4-dimethylsulfamoyl)phenyl]-n-methylhexanoic acid amide","InChI=1S/C15H24N2O3S/c1-5-6-7-8-15(18)17(4)13-9-11-14(12-10-13)21(19,20)16(2)3/h9-12H,5-8H2,1-4H3",XKZWBUMTAFVMJT-UHFFFAOYSA-N,CCCCCC(=O)N(C)c1ccc(S(=O)(=O)N(C)C)cc1,-2.95,0.0,1,G1,312.43500000000006,2.4800000000000004,84.86680000000005,21.0,3.0,0.0,6.0,7.0,118.0,1.0,0.0,0.0,1.0,57.690000000000005,127.15784748193204,2.804124152643005,565.08645570025
C-1375,celiprolol,"InChI=1S/C20H33N3O4/c1-7-23(8-2)19(26)22-15-9-10-18(17(11-15)14(3)24)27-13-16(25)12-21-20(4,5)6/h9-11,16,21,25H,7-8,12-13H2,1-6H3,(H,22,26)",JOATXPAWOHTVSZ-UHFFFAOYSA-N,CCN(CC)C(=O)Nc1ccc(OCC(O)CNC(C)(C)C)c(C(C)=O)c1,-1.9,0.0,1,G1,379.50100000000015,2.8907000000000007,107.64370000000008,27.0,5.0,3.0,7.0,9.0,152.0,1.0,0.0,0.0,1.0,90.9,161.63097394025934,2.7871583156014075,636.6042613427059
C-1377,n-2-(2-acetoxybenzoyloxy)acetylglycine ethyl ester,"InChI=1S/C15H17NO7/c1-3-21-14(19)8-16-13(18)9-22-15(20)11-6-4-5-7-12(11)23-10(2)17/h4-7H,3,8-9H2,1-2H3,(H,16,18)",RENNXOTVYDMFOD-UHFFFAOYSA-N,CCOC(=O)CNC(=O)COC(=O)c1ccccc1OC(C)=O,-1.87,0.0,1,G1,323.3010000000001,0.4479999999999999,77.67620000000004,23.0,7.0,1.0,8.0,7.0,124.0,1.0,0.0,0.0,1.0,108.0,132.2524684213702,2.5206449320082975,597.2431178589676
C-1379,dicapthon;  dicaptan,"InChI=1S/C8H9ClNO5PS/c1-13-16(17,14-2)15-8-4-3-6(10(11)12)5-7(8)9/h3-5H,1-2H3",OTKXWJHPGBRXCR-UHFFFAOYSA-N,COP(=S)(OC)Oc1ccc([N+](=O)[O-])cc1Cl,-4.68,0.1867999999999998,2,G3,297.656,3.144300000000002,67.0374,17.0,6.0,0.0,9.0,5.0,94.0,1.0,0.0,0.0,1.0,70.83000000000001,107.83809308940528,3.01217730448783,474.98338445956347
C-1382,n-[4-(dimethylsulfamoyl)phenyl]-n-methylheptanoic acid amide,"InChI=1S/C16H26N2O3S/c1-5-6-7-8-9-16(19)18(4)14-10-12-15(13-11-14)22(20,21)17(2)3/h10-13H,5-9H2,1-4H3",HHMGSXBJVFFCGH-UHFFFAOYSA-N,CCCCCCC(=O)N(C)c1ccc(S(=O)(=O)N(C)C)cc1,-3.68,0.0,1,G1,326.4620000000001,2.8701000000000016,89.48380000000006,22.0,3.0,0.0,6.0,8.0,124.0,1.0,0.0,0.0,1.0,57.690000000000005,133.52278959632864,2.717338762665327,579.9134112883033
C-1384,"n1,n4,n4-trimethyl-n1-(heptanoyl)sulfanilamide","InChI=1S/C16H26N2O3S/c1-5-6-7-8-9-16(19)18(4)22(20,21)15-12-10-14(11-13-15)17(2)3/h10-13H,5-9H2,1-4H3",QHVARHTXPQPYKM-UHFFFAOYSA-N,CCCCCCC(=O)N(C)S(=O)(=O)c1ccc(N(C)C)cc1,-3.68,0.0,1,G1,326.4620000000001,2.8701000000000016,89.48380000000006,22.0,4.0,0.0,6.0,8.0,124.0,1.0,0.0,0.0,1.0,57.690000000000005,133.52278959632864,2.7711201954241984,579.9134112883033
C-1386,"n1,n1,n4-trimethyl-n4-(octanoyl)sulfanilamide; n-[(4-dimethylsulfamoyl)phenyl]-n-methyloctanoic acid amide","InChI=1S/C17H28N2O3S/c1-5-6-7-8-9-10-17(20)19(4)15-11-13-16(14-12-15)23(21,22)18(2)3/h11-14H,5-10H2,1-4H3",KPHZMBYXFKPLCC-UHFFFAOYSA-N,CCCCCCCC(=O)N(C)c1ccc(S(=O)(=O)N(C)C)cc1,-3.59,0.0,1,G1,340.4890000000001,3.260200000000002,94.10080000000008,23.0,3.0,0.0,6.0,9.0,130.0,1.0,0.0,0.0,1.0,57.690000000000005,139.8877317107253,2.6337719295409,594.7694240617998
C-1389,n-methyl-n-(2-(2'-acetoxy)benzoyloxy)acetylglycine ethyl ester,"InChI=1S/C16H19NO7/c1-4-22-15(20)9-17(3)14(19)10-23-16(21)12-7-5-6-8-13(12)24-11(2)18/h5-8H,4,9-10H2,1-3H3",ZEMRQSGEJWXCQZ-UHFFFAOYSA-N,CCOC(=O)CN(C)C(=O)COC(=O)c1ccccc1OC(C)=O,-2.55,0.0,1,G1,337.3280000000001,0.7901999999999993,82.30350000000004,24.0,7.0,0.0,8.0,7.0,130.0,1.0,0.0,0.0,1.0,99.21,138.82738202236214,2.612262539647111,626.6068704388124
C-1417,"tetrachlorvinphos;  2-chloro-1-(2,4,5-trichlorophenyl)vinyl dimethyl phosphate","InChI=1S/C10H9Cl4O4P/c1-16-19(15,17-2)18-10(5-11)6-3-8(13)9(14)4-7(6)12/h3-5H,1-2H3/b10-5-",UBCKGWBNUIFUST-YHYXMXQVSA-N,COP(=O)(OC)O/C(=C\Cl)c1cc(Cl)c(Cl)cc1Cl,-4.52,0.0,1,G1,365.96400000000006,5.601500000000002,78.01150000000003,19.0,4.0,0.0,9.0,5.0,106.0,1.0,0.0,0.0,1.0,44.760000000000005,130.30487981542154,3.1950692192678933,538.5763442423939
C-1430,fensulfothion-sulfone,"InChI=1S/C11H17O5PS2/c1-4-14-17(18,15-5-2)16-10-6-8-11(9-7-10)19(3,12)13/h6-9H,4-5H2,1-3H3",VTFZEBCYVXMEBB-UHFFFAOYSA-N,CCOP(=S)(OCC)Oc1ccc(S(C)(=O)=O)cc1,-3.58,0.47085,2,G3,324.36000000000007,2.766400000000001,77.71680000000003,19.0,6.0,0.0,8.0,7.0,108.0,1.0,0.0,0.0,1.0,61.830000000000005,118.60207586500022,2.897627486722987,542.9532064267405
C-1479,"entacapone analog (2 b); (e)-2-cyano-n,n-diethyl-3-(3-butylaminocarbonyloxy-4-hydroxy-5-nitrophenyl)propenamide","InChI=1S/C19H24N4O6/c1-4-7-8-21-19(26)29-16-11-13(10-15(17(16)24)23(27)28)9-14(12-20)18(25)22(5-2)6-3/h9-11,24H,4-8H2,1-3H3,(H,21,26)/b14-9-",LAYLZIREKXYMDV-ZROIWOOFSA-N,CCCCNC(=O)Oc1cc(/C=C(/C#N)C(=O)N(CC)CC)cc([N+](=O)[O-])c1O,-2.32,0.0,1,G1,404.42300000000023,2.964280000000002,105.21390000000004,29.0,7.0,2.0,10.0,9.0,156.0,1.0,0.0,0.0,1.0,145.79999999999998,168.07212201403902,3.3155113317619933,839.8364959400415
C-1484,"entacapone analog (2 c); (e)-2-cyano-n,n-diethyl-3-(3-tert-butylaminocarbonyloxy-4-hydroxy-5-nitrophenyl)propenamide","InChI=1S/C19H24N4O6/c1-6-22(7-2)17(25)13(11-20)8-12-9-14(23(27)28)16(24)15(10-12)29-18(26)21-19(3,4)5/h8-10,24H,6-7H2,1-5H3,(H,21,26)/b13-8-",BSVGCJGACKDNDR-JYRVWZFOSA-N,CCN(CC)C(=O)/C(C#N)=C\c1cc(OC(=O)NC(C)(C)C)c(O)c([N+](=O)[O-])c1,-3.53,0.0,1,G1,404.4230000000002,2.9626800000000015,105.19190000000005,29.0,7.0,2.0,10.0,6.0,156.0,1.0,0.0,0.0,1.0,145.8,168.07212201403902,3.4256803695541245,875.9111603286982
C-1608,2-methylbenzyl  alcohol,"InChI=1S/C8H10O/c1-7-4-2-3-5-8(7)6-9/h2-5,9H,6H2,1H3",XPNGNIFUDRPBFJ-UHFFFAOYSA-N,Cc1ccccc1CO,-1.09,0.0,1,G1,122.167,1.48732,37.1018,9.0,1.0,1.0,1.0,1.0,48.0,1.0,0.0,0.0,1.0,20.23,54.95552110048619,3.0065240073265844,193.51405299160075
C-1633,"1,2-dicyanobenzene;  phthalonitrile",InChI=1S/C8H4N2/c9-5-7-3-1-2-4-8(7)6-10/h1-4H,XQZYPMVTSDWCCE-UHFFFAOYSA-N,N#Cc1ccccc1C#N,-2.38,0.067591440020704,3,G5,128.13399999999996,1.42996,35.872000000000014,10.0,2.0,0.0,2.0,0.0,46.0,1.0,0.0,0.0,1.0,47.58,58.94644671122761,3.284977738882917,281.76485559073006
C-1636,phenylglyoxal (monohydrate),InChI=1S/C8H6O2/c9-6-8(10)7-4-2-1-3-5-7/h1-6H,OJUGVDODNPJEEC-UHFFFAOYSA-N,O=CC(=O)c1ccccc1,-0.74,0.0,1,G1,134.134,1.0682,36.836500000000015,10.0,2.0,0.0,2.0,2.0,50.0,1.0,0.0,0.0,1.0,34.14,58.4843315483777,2.9545807395194585,238.69432088304723
C-1641,phthalaldehyde,InChI=1S/C8H6O2/c9-5-7-3-1-2-4-8(7)6-10/h1-6H,ZWLUXSQADUDCSB-UHFFFAOYSA-N,O=Cc1ccccc1C=O,-1.34,0.0,1,G1,134.13399999999996,1.3116,37.217000000000006,10.0,2.0,0.0,2.0,2.0,50.0,1.0,0.0,0.0,1.0,34.14,58.4843315483777,3.1971603955332917,226.18943338088377
C-1645,4-phenylbutyric  acid;  4-phenylbutanoic acid,"InChI=1S/C10H12O2/c11-10(12)8-4-7-9-5-2-1-3-6-9/h1-3,5-6H,4,7-8H2,(H,11,12)",OBKXEAXTFZPCHS-UHFFFAOYSA-N,O=C(O)CCCc1ccccc1,-1.78,0.0,1,G1,164.204,2.0939,47.01580000000003,12.0,1.0,1.0,2.0,4.0,64.0,1.0,0.0,0.0,1.0,37.3,71.84692742932317,2.290572056240154,241.27530899395387
C-1647,dopamine;  3-hydroxytyramine,"InChI=1S/C8H11NO2/c9-4-3-6-1-2-7(10)8(11)5-6/h1-2,5,10-11H,3-4,9H2",VYFYYTLLBUKUHU-UHFFFAOYSA-N,NCCc1ccc(O)c(O)c1,0.12,0.0,1,G1,153.18099999999998,0.5989999999999998,42.53000000000002,11.0,3.0,3.0,3.0,2.0,60.0,1.0,0.0,0.0,1.0,66.48,65.08964554969491,2.864712197425543,247.8474159248874
C-1648,propionanilide,"InChI=1S/C9H11NO/c1-2-9(11)10-8-6-4-3-5-7-8/h3-7H,2H2,1H3,(H,10,11)",ZTHRQJQJODGZHV-UHFFFAOYSA-N,CCC(=O)Nc1ccccc1,-1.55,0.1849999999999999,2,G3,149.19299999999998,2.0351,45.362700000000025,11.0,1.0,1.0,2.0,2.0,58.0,1.0,0.0,0.0,1.0,29.1,66.2376137463386,2.57930229200732,230.57786591623355
C-1657,"3,4-dimethylbenzoic  acid","InChI=1S/C9H10O2/c1-6-3-4-8(9(10)11)5-7(6)2/h3-5H,1-2H3,(H,10,11)",OPVAJFQBSDUNQA-UHFFFAOYSA-N,Cc1ccc(C(=O)O)cc1C,-3.16,0.0,1,G1,150.17699999999996,2.0016399999999996,42.87530000000002,11.0,1.0,1.0,2.0,1.0,58.0,1.0,0.0,0.0,1.0,37.3,65.48198531492656,3.1515496683060507,289.6142492178085
C-1658,"2,4-dimethylbenzoic  acid","InChI=1S/C9H10O2/c1-6-3-4-8(9(10)11)7(2)5-6/h3-5H,1-2H3,(H,10,11)",BKYWPNROPGQIFZ-UHFFFAOYSA-N,Cc1ccc(C(=O)O)c(C)c1,-2.97,0.0,1,G1,150.17699999999996,2.00164,42.87530000000002,11.0,1.0,1.0,2.0,1.0,58.0,1.0,0.0,0.0,1.0,37.3,65.48198531492656,3.1960696621259204,289.6142492178085
C-1659,"2,5-dimethylbenzoic  acid","InChI=1S/C9H10O2/c1-6-3-4-7(2)8(5-6)9(10)11/h3-5H,1-2H3,(H,10,11)",XZRHNAFEYMSXRG-UHFFFAOYSA-N,Cc1ccc(C)c(C(=O)O)c1,-2.92,0.0,1,G1,150.177,2.0016399999999996,42.87530000000002,11.0,1.0,1.0,2.0,1.0,58.0,1.0,0.0,0.0,1.0,37.3,65.48198531492656,3.232208870305491,289.6142492178085
C-1660,4-amino-n-methyl-benzamide,"InChI=1S/C8H10N2O/c1-10-8(11)6-2-4-7(9)5-3-6/h2-5H,9H2,1H3,(H,10,11)",XAGFYNSCWICYPA-UHFFFAOYSA-N,CNC(=O)c1ccc(N)cc1,-1.24,0.0,1,G1,150.181,0.6284000000000001,44.24460000000001,11.0,2.0,2.0,3.0,1.0,58.0,1.0,0.0,0.0,1.0,55.120000000000005,65.21256232895469,2.8953480359887567,253.29949758389105
C-1661,4-isothiocyanatophenol,"InChI=1S/C7H5NOS/c9-7-3-1-6(2-4-7)8-5-10/h1-4,9H",HIPHYBWWZWRZOV-UHFFFAOYSA-N,Oc1ccc(N=C=S)cc1,-2.67,0.0,1,G1,151.19,2.1265,42.792800000000014,10.0,3.0,1.0,3.0,1.0,50.0,1.0,0.0,0.0,1.0,32.59,63.844681719154586,2.9960277321018163,261.43952526087224
C-1663,3-isothiocyanatophenol,"InChI=1S/C7H5NOS/c9-7-3-1-2-6(4-7)8-5-10/h1-4,9H",BWZDLMGVEVSNBI-UHFFFAOYSA-N,Oc1cccc(N=C=S)c1,-1.99,0.0,1,G1,151.19,2.1265,42.792800000000014,10.0,3.0,1.0,3.0,1.0,50.0,1.0,0.0,0.0,1.0,32.59,63.844681719154586,3.061972168711611,278.6895252608723
C-1672,benzoylformic  acid;  phenylglyoxylic  acid,"InChI=1S/C8H6O3/c9-7(8(10)11)6-4-2-1-3-5-6/h1-5H,(H,10,11)",FAQJJMHZNSSFSM-UHFFFAOYSA-N,O=C(O)C(=O)c1ccccc1,-0.37,0.0,1,G1,150.13299999999998,0.9539,38.40830000000002,11.0,2.0,1.0,3.0,2.0,56.0,1.0,0.0,0.0,1.0,54.37,63.27856530057372,2.9479803431399967,276.6484617329528
C-1674,3-cyanobenzoic  acid,"InChI=1S/C8H5NO2/c9-5-6-2-1-3-7(4-6)8(10)11/h1-4H,(H,10,11)",GYLKKXHEIIFTJH-UHFFFAOYSA-N,N#Cc1cccc(C(=O)O)c1,-2.63,0.0,1,G1,147.13299999999998,1.2564799999999998,38.11630000000001,11.0,2.0,1.0,3.0,1.0,54.0,1.0,0.0,0.0,1.0,61.09,63.50962288199867,3.1328426042020197,325.1090974511937
C-1678,n-(hydroxymethyl)thiobenzamide,"InChI=1S/C8H9NOS/c10-6-9-8(11)7-4-2-1-3-5-7/h1-5,10H,6H2,(H,9,11)",ULLWVDKMTKASGV-UHFFFAOYSA-N,OCNC(=S)c1ccccc1,-1.14,0.0,1,G1,167.233,0.9015,48.36350000000002,11.0,2.0,2.0,3.0,2.0,58.0,1.0,0.0,0.0,1.0,32.26,70.86416353129911,2.6930079504145,235.1071909292143
C-1681,3-methylsalicylic acid; 2-hydroxy-3-methylbenzoic acid,"InChI=1S/C8H8O3/c1-5-3-2-4-6(7(5)9)8(10)11/h2-4,9H,1H3,(H,10,11)",WHSXTWFYRGOBGO-UHFFFAOYSA-N,Cc1cccc(C(=O)O)c1O,-2.04,0.0,1,G1,152.149,1.3988200000000002,39.80310000000001,11.0,2.0,2.0,3.0,1.0,58.0,1.0,0.0,0.0,1.0,57.53,63.91127695272596,3.273580821537543,291.3886867286258
C-1682,6-methylsalicylic acid; 2-hydroxy-6-methylbenzoic acid,"InChI=1S/C8H8O3/c1-5-3-2-4-6(9)7(5)8(10)11/h2-4,9H,1H3,(H,10,11)",HCJMNOSIAGSZBM-UHFFFAOYSA-N,Cc1cccc(O)c1C(=O)O,-2.04,0.0,1,G1,152.149,1.39882,39.80310000000001,11.0,2.0,2.0,3.0,1.0,58.0,1.0,0.0,0.0,1.0,57.53,63.91127695272596,3.318913173486668,271.1386867286258
C-1692,"2,4-dihydroxybenzoic  acid;  beta-resorcylic  acid","InChI=1S/C7H6O4/c8-4-1-2-5(7(10)11)6(9)3-4/h1-3,8-9H,(H,10,11)",UIAFKZKHHVMJGS-UHFFFAOYSA-N,O=C(O)c1ccc(O)cc1O,-1.41,0.008,2,G3,154.12099999999998,0.7959999999999998,36.730900000000005,11.0,3.0,3.0,4.0,1.0,58.0,1.0,0.0,0.0,1.0,77.76,62.34056859052537,3.1960696621259195,292.492089776386
C-1697,"5-phenyl-2,4-pentadienoic  acid","InChI=1S/C11H10O2/c12-11(13)9-5-4-8-10-6-2-1-3-7-10/h1-9H,(H,12,13)/b8-4+,9-5+",FEIQOMCWGDNMHM-KBXRYBNXSA-N,O=C(O)/C=C/C=C/c1ccccc1,-3.64,0.0,1,G1,174.199,2.3406,52.251800000000024,13.0,1.0,1.0,2.0,3.0,66.0,1.0,0.0,0.0,1.0,37.3,76.83266347935127,2.5487351932320186,323.2033324368505
C-1700,1-ethoxy-4-isothiocyanatobenzene,"InChI=1S/C9H9NOS/c1-2-11-9-5-3-8(4-6-9)10-7-12/h3-6H,2H2,1H3",REEKOMRZYJXXNR-UHFFFAOYSA-N,CCOc1ccc(N=C=S)cc1,-4.26,0.0,1,G1,179.24399999999997,2.819600000000001,52.297000000000025,12.0,3.0,0.0,3.0,3.0,62.0,1.0,0.0,0.0,1.0,21.59,76.89387742525867,2.774561258221806,287.9017744552849
C-1703,n-hydroxymethyl-4-methoxybenzamide,"InChI=1S/C9H11NO3/c1-13-8-4-2-7(3-5-8)9(12)10-6-11/h2-5,11H,6H2,1H3,(H,10,12)",UFEJBJDMZBIZLV-UHFFFAOYSA-N,COc1ccc(C(=O)NCO)cc1,-1.22,0.0,1,G1,181.19099999999997,0.3747999999999998,47.54600000000002,13.0,3.0,2.0,4.0,3.0,70.0,1.0,0.0,0.0,1.0,58.56,76.1453927280415,2.73546934370172,281.41621774863245