ID,Name,InChI,InChIKey,SMILES,Solubility,SD,Occurrences,Group,MolWt,MolLogP,MolMR,HeavyAtomCount,NumHAcceptors,NumHDonors,NumHeteroatoms,NumRotatableBonds,NumValenceElectrons,NumAromaticRings,NumSaturatedRings,NumAliphaticRings,RingCount,TPSA,LabuteASA,BalabanJ,BertzCT
B-703,"benzaldehyde, 3,4-dimethoxy-","InChI=1S/C9H10O3/c1-11-8-4-3-7(6-10)5-9(8)12-2/h3-6H,1-2H3",WJUFSDZVCOTFON-UHFFFAOYSA-N,COc1ccc(C=O)cc1OC,-1.4199,0.1864629189,2,G3,166.17599999999996,1.5162999999999998,44.93350000000002,12.0,3.0,0.0,3.0,3.0,64.0,1.0,0.0,0.0,1.0,35.53,70.9148420217443,3.097737020758659,281.102178757748
B-704,"benzaldehyde, 4-ethoxy-3-methoxy-","InChI=1S/C10H12O3/c1-3-13-9-5-4-8(7-11)6-10(9)12-2/h4-7H,3H2,1-2H3",BERFDQAMXIBOHM-UHFFFAOYSA-N,CCOc1ccc(C=O)cc1OC,-2.1913,0.0,1,G1,180.20299999999995,1.9064,49.55050000000003,13.0,3.0,0.0,3.0,4.0,70.0,1.0,0.0,0.0,1.0,35.53,77.2797841361409,2.998837782975782,294.22137431057615
B-713,propyl gallate,"InChI=1S/C10H12O5/c1-2-3-15-10(14)6-4-7(11)9(13)8(12)5-6/h4-5,11-13H,2-3H2,1H3",ZTHYODDOHIVTJV-UHFFFAOYSA-N,CCCOC(=O)c1cc(O)c(O)c(O)c1,-1.7827,0.0,1,G1,212.201,1.3702,52.00990000000003,15.0,5.0,3.0,5.0,3.0,82.0,1.0,0.0,0.0,1.0,86.99000000000001,86.54894016322208,2.908546519248324,349.07065170154243
B-719,2-anilinoethanol,"InChI=1S/C8H11NO/c10-7-6-9-8-4-2-1-3-5-8/h1-5,9-10H,6-7H2",MWGATWIBSKHFMR-UHFFFAOYSA-N,OCCNc1ccccc1,-0.4745,0.01721610625,2,G3,137.182,1.0908,42.01750000000002,10.0,2.0,2.0,2.0,3.0,54.0,1.0,0.0,0.0,1.0,32.26,60.50538328409423,2.4265223465879537,173.872282370036
B-770,"2,4,6-trinitrobenzoic acid","InChI=1S/C7H3N3O8/c11-7(12)6-4(9(15)16)1-3(8(13)14)2-5(6)10(17)18/h1-2H,(H,11,12)",KAQBNBSMMVTKRN-UHFFFAOYSA-N,O=C(O)c1c([N+](=O)[O-])cc([N+](=O)[O-])cc1[N+](=O)[O-],-1.0977,0.0,1,G1,257.114,1.1094000000000002,53.364499999999985,18.0,7.0,1.0,11.0,4.0,94.0,1.0,0.0,0.0,1.0,166.72,96.71102825363272,3.7641788837453345,545.0484750158275
B-780,"phenol, 2,4-dichloro-3,5-dimethyl-","InChI=1S/C8H8Cl2O/c1-4-3-6(11)8(10)5(2)7(4)9/h3,11H,1-2H3",IYOLBFFHPZOQGW-UHFFFAOYSA-N,Cc1cc(O)c(Cl)c(C)c1Cl,-2.9801,0.0,1,G1,191.057,3.3158400000000015,47.60080000000002,11.0,1.0,1.0,3.0,0.0,60.0,1.0,0.0,0.0,1.0,20.23,75.56205355424953,3.4555464838177836,268.3837992264624
B-781,"3,5-diiodosalicylic acid","InChI=1S/C7H4I2O3/c8-3-1-4(7(11)12)6(10)5(9)2-3/h1-2,10H,(H,11,12)",DHZVWQPHNWDCFS-UHFFFAOYSA-N,O=C(O)c1cc(I)cc(I)c1O,-3.307,0.0,1,G1,389.914,2.2996000000000003,60.5001,12.0,2.0,2.0,5.0,1.0,64.0,1.0,0.0,0.0,1.0,57.53,96.07001108041663,3.3738590108748685,335.66852769827057
B-787,"benzenamine, 2-ethoxy-5-nitro-","InChI=1S/C8H10N2O3/c1-2-13-8-4-3-6(10(11)12)5-7(8)9/h3-5H,2,9H2,1H3",AMMPGYPPRLWMLW-UHFFFAOYSA-N,CCOc1ccc([N+](=O)[O-])cc1N,-3.2113,0.0,1,G1,182.17899999999997,1.5757,48.67780000000001,13.0,4.0,1.0,5.0,3.0,70.0,1.0,0.0,0.0,1.0,78.38999999999999,75.26769899730957,2.9807441303986697,325.16521978178946
B-788,"2,4,5-trimethylaniline","InChI=1S/C9H13N/c1-6-4-8(3)9(10)5-7(6)2/h4-5H,10H2,1-3H3",BMIPMKQAAJKBKP-UHFFFAOYSA-N,Cc1cc(C)c(N)cc1C,-1.9549,0.0,1,G1,135.21,2.1940600000000003,45.06540000000002,10.0,1.0,1.0,1.0,0.0,54.0,1.0,0.0,0.0,1.0,26.02,61.866120159699506,3.2824629074535228,200.900333363576
B-793,"benzenesulfonic acid, 3-hydrazino-","InChI=1S/C6H8N2O3S/c7-8-5-2-1-3-6(4-5)12(9,10)11/h1-4,8H,7H2,(H,9,10,11)",ZDGHHRPKFCVOJL-UHFFFAOYSA-N,NNc1cccc(S(=O)(=O)O)c1,-0.8275,0.0,1,G1,188.20799999999997,0.2189,44.0667,12.0,4.0,3.0,6.0,2.0,66.0,1.0,0.0,0.0,1.0,92.42,69.91992803039331,3.1985659922950855,374.1345171707861
B-794,"benzenesulfonamide, 4-(aminomethyl)-","InChI=1S/C7H10N2O2S/c8-5-6-1-3-7(4-2-6)12(9,10)11/h1-4H,5,8H2,(H2,9,10,11)",TYMRLRRVMHJFTF-UHFFFAOYSA-N,NCc1ccc(S(N)(=O)=O)cc1,0.321,0.0,1,G1,186.23599999999996,-0.2072999999999999,45.70660000000001,12.0,3.0,2.0,5.0,2.0,66.0,1.0,0.0,0.0,1.0,86.18,71.23690252033408,3.090461034734354,355.49769522287335
B-799,"3,4-dihydroxybenzaldehyde","InChI=1S/C7H6O3/c8-4-5-1-2-6(9)7(10)3-5/h1-4,9-10H",IBGBGRVKPALMCQ-UHFFFAOYSA-N,O=Cc1ccc(O)c(O)c1,-1.3402,0.4501,2,G3,138.122,0.9103,35.1591,10.0,3.0,2.0,3.0,1.0,52.0,1.0,0.0,0.0,1.0,57.53,57.54633483832936,3.158901732156222,255.02817392215363
B-806,fenaminosulf,"InChI=1S/C8H11N3O3S.Na/c1-11(2)8-5-3-7(4-6-8)9-10-15(12,13)14;/h3-6H,1-2H3,(H,12,13,14);/q;+1/p-1",IWDQPCIQCXRBQP-UHFFFAOYSA-M,CN(C)c1ccc(N=NS(=O)(=O)[O-])cc1.[Na+],-1.0991,0.0,1,G1,251.243,-1.6994999999999976,54.98220000000002,16.0,5.0,0.0,8.0,3.0,82.0,1.0,0.0,0.0,1.0,85.16,116.54531200636367,2.2499990861253845e-06,455.92180891040334
B-807,"benzene, 1-methoxy-4-(2-propenyl)-","InChI=1S/C10H12O/c1-3-4-9-5-7-10(11-2)8-6-9/h3,5-8H,1,4H2,2H3",ZFMSMUAANRJZFM-UHFFFAOYSA-N,C=CCc1ccc(OC)cc1,-2.9209,0.0,1,G1,148.205,2.4237,46.895000000000024,11.0,1.0,0.0,1.0,3.0,58.0,1.0,0.0,0.0,1.0,9.23,67.31511377440603,2.7366739543410024,223.13302247817728
B-845,"benzamide, 2-methyl-3,5-dinitro-","InChI=1S/C8H7N3O5/c1-4-6(8(9)12)2-5(10(13)14)3-7(4)11(15)16/h2-3H,1H3,(H2,9,12)",ZEFNOZRLAWVAQF-UHFFFAOYSA-N,Cc1c(C(N)=O)cc([N+](=O)[O-])cc1[N+](=O)[O-],-2.3525,0.0,1,G1,225.15999999999997,0.9103200000000002,53.0057,16.0,5.0,1.0,8.0,3.0,84.0,1.0,0.0,0.0,1.0,129.37,88.96865159034628,3.5727545380551327,461.44230407164184
B-848,"2,4-des","InChI=1S/C8H8Cl2O5S/c9-6-1-2-8(7(10)5-6)14-3-4-15-16(11,12)13/h1-2,5H,3-4H2,(H,11,12,13)",HJEINPVZRDJRBY-UHFFFAOYSA-N,O=S(=O)(O)OCCOc1ccc(Cl)cc1Cl,-0.0601,0.0,1,G1,287.12,2.1916,59.45760000000002,16.0,4.0,1.0,8.0,5.0,90.0,1.0,0.0,0.0,1.0,72.83,102.83255014716592,2.434902784656965,459.49651615830777
B-849,"3,4,5-trihydroxybenzoic acid","InChI=1S/C7H6O5/c8-4-1-3(7(11)12)2-5(9)6(4)10/h1-2,8-10H,(H,11,12)",LNTHITQWFMADLM-UHFFFAOYSA-N,O=C(O)c1cc(O)c(O)c(O)c1,-1.1552,0.0,1,G1,170.11999999999998,0.5015999999999998,38.39570000000001,12.0,4.0,4.0,5.0,1.0,64.0,1.0,0.0,0.0,1.0,97.99,67.13480234272139,3.306535412749064,307.56377472599723
B-850,dulcin,"InChI=1S/C9H12N2O2/c1-2-13-8-5-3-7(4-6-8)11-9(10)12/h3-6H,2H2,1H3,(H3,10,11,12)",GGLIEWRLXDLBBF-UHFFFAOYSA-N,CCOc1ccc(NC(N)=O)cc1,-2.173,0.0,1,G1,180.20699999999997,1.5759,50.81710000000001,13.0,2.0,2.0,4.0,3.0,70.0,1.0,0.0,0.0,1.0,64.35,76.6910496728582,2.635972640607562,282.1711052507959
B-891,"l-tyrosine, 3,5-dibromo-","InChI=1S/C9H9Br2NO3/c10-5-1-4(2-6(11)8(5)13)3-7(12)9(14)15/h1-2,7,13H,3,12H2,(H,14,15)/t7-/m0/s1",COESHZUDRKCEPA-ZETCQYMHSA-N,N[C@@H](Cc1cc(Br)c(O)c(Br)c1)C(=O)O,-1.9281,0.0,1,G1,338.98300000000006,1.8716,62.82200000000001,15.0,3.0,3.0,6.0,3.0,82.0,1.0,0.0,0.0,1.0,83.55000000000001,103.35120497541804,2.9237270307423464,371.9390010832792
B-907,mexacarbate,"InChI=1S/C12H18N2O2/c1-8-6-10(16-12(15)13-3)7-9(2)11(8)14(4)5/h6-7H,1-5H3,(H,13,15)",YNEVBPNZHBAYOA-UHFFFAOYSA-N,CNC(=O)Oc1cc(C)c(N(C)C)c(C)c1,-3.3469,0.0,1,G1,222.288,2.08764,65.32670000000003,16.0,3.0,1.0,4.0,2.0,88.0,1.0,0.0,0.0,1.0,41.57,96.20581898923864,3.0480394338762635,377.0003882453518
B-909,5-chlorosalicylic acid,"InChI=1S/C7H5ClO3/c8-4-1-2-6(9)5(3-4)7(10)11/h1-3,9H,(H,10,11)",NKBASRXWGAGQDP-UHFFFAOYSA-N,O=C(O)c1cc(Cl)ccc1O,-1.237,0.7665,2,G2,172.567,1.7437999999999998,40.07610000000001,11.0,2.0,2.0,4.0,1.0,58.0,1.0,0.0,0.0,1.0,57.53,67.84960106521103,3.232208870305491,295.73720227422257
B-911,"acetamide, n-(4-fluoro-2-methylphenyl)-","InChI=1S/C9H10FNO/c1-6-5-8(10)3-4-9(6)11-7(2)12/h3-5H,1-2H3,(H,11,12)",RJKWSTDTEPBWBJ-UHFFFAOYSA-N,CC(=O)Nc1ccc(F)cc1C,-1.3593,0.0,1,G1,167.183,2.0925199999999995,45.44070000000002,12.0,1.0,1.0,3.0,1.0,64.0,1.0,0.0,0.0,1.0,29.1,70.40314914926483,2.93480212462999,309.39688695312145
B-912,"acetamide, n-(2-fluoro-4-methylphenyl)-","InChI=1S/C9H10FNO/c1-6-3-4-9(8(10)5-6)11-7(2)12/h3-5H,1-2H3,(H,11,12)",WHXUSWHUWNRNHT-UHFFFAOYSA-N,CC(=O)Nc1ccc(C)cc1F,-1.7403,0.0,1,G1,167.18299999999996,2.0925199999999995,45.440700000000014,12.0,1.0,1.0,3.0,1.0,64.0,1.0,0.0,0.0,1.0,29.1,70.40314914926482,2.93480212462999,309.39688695312145
B-913,"1,2,4,5-tetrafluorobenzene",InChI=1S/C6H2F4/c7-3-1-4(8)6(10)2-5(3)9/h1-2H,SDXUIOOHCIQXRP-UHFFFAOYSA-N,Fc1cc(F)c(F)cc1F,-2.3757,0.0,1,G1,150.07399999999998,2.2430000000000003,26.274,10.0,0.0,0.0,4.0,0.0,54.0,1.0,0.0,0.0,1.0,0.0,54.09354473120191,3.2824629074535228,205.9198833722299
B-919,o-fluorobenzyl chloride,"InChI=1S/C7H6ClF/c8-5-6-3-1-2-4-7(6)9/h1-4H,5H2",MOBRMRJUKNQBMY-UHFFFAOYSA-N,Fc1ccccc1CCl,-2.541,0.0,1,G1,144.576,2.5645000000000007,35.95700000000001,9.0,0.0,0.0,2.0,1.0,48.0,1.0,0.0,0.0,1.0,0.0,58.26514686370148,3.0065240073265844,197.86256853719752
B-920,1-chloro-2-fluorobenzene,InChI=1S/C6H4ClF/c7-5-3-1-2-4-6(5)8/h1-4H,ZCJAYDKWZAWMPR-UHFFFAOYSA-N,Fc1ccccc1Cl,-2.4157,0.0,1,G1,130.54899999999998,2.4791000000000007,31.409999999999997,8.0,0.0,0.0,2.0,0.0,42.0,1.0,0.0,0.0,1.0,0.0,51.90020474930487,3.134861511345448,164.63833891467198
B-921,"benzene, 1-fluoro-4-iodo-",InChI=1S/C6H4FI/c7-5-1-3-6(8)4-2-5/h1-4H,KGNQDBQYEBMPFZ-UHFFFAOYSA-N,Fc1ccc(I)cc1,-3.1257,0.0,1,G1,222.0,2.430300000000001,39.11700000000001,8.0,0.0,0.0,2.0,0.0,42.0,1.0,0.0,0.0,1.0,0.0,60.85877664346683,3.0324555320336755,147.38833891467198
B-926,benzenediazonium hexafluophosphate (1-),"InChI=1S/C6H5N2.F6P/c7-8-6-4-2-1-3-5-6;1-7(2,3,4,5)6/h1-5H;/q+1;-1",GIDPFONPWSEBOB-UHFFFAOYSA-N,F[P-](F)(F)(F)(F)F.N#[N+]c1ccccc1,-1.4438,0.0,1,G1,250.08200000000005,5.553580000000002,44.75400000000002,15.0,1.0,0.0,9.0,0.0,86.0,1.0,0.0,0.0,1.0,28.15,80.37911299911717,2.64999996436756e-07,351.22982928386824
B-935,4-fluoro-2-propyl-phenol,"InChI=1S/C9H11FO/c1-2-3-7-6-8(10)4-5-9(7)11/h4-6,11H,2-3H2,1H3",BQWYJUVFIXTFHH-UHFFFAOYSA-N,CCCc1cc(F)ccc1O,-1.887,0.0,1,G1,154.18399999999997,2.483800000000001,42.059800000000024,11.0,1.0,1.0,2.0,2.0,60.0,1.0,0.0,0.0,1.0,20.23,65.48599861780903,2.927939142435774,245.3180909119066
B-938,"benzoic acid, 2-(trifluoromethyl)-","InChI=1S/C8H5F3O2/c9-8(10,11)6-4-2-1-3-5(6)7(12)13/h1-4H,(H,12,13)",FBRJYBGLCHWYOE-UHFFFAOYSA-N,O=C(O)c1ccccc1C(F)(F)F,-1.5978,0.0,1,G1,190.11999999999995,2.403600000000001,38.40330000000001,13.0,1.0,1.0,5.0,1.0,70.0,1.0,0.0,0.0,1.0,37.3,71.61364940930865,3.2832639201778533,330.40617847985413
B-944,iodamide,"InChI=1S/C12H11I3N2O4/c1-4(18)16-3-6-8(13)7(12(20)21)10(15)11(9(6)14)17-5(2)19/h3H2,1-2H3,(H,16,18)(H,17,19)(H,20,21)",VVDGWALACJEJKG-UHFFFAOYSA-N,CC(=O)NCc1c(I)c(NC(C)=O)c(I)c(C(=O)O)c1I,-2.3208,0.0,1,G1,627.9420000000002,2.793100000000001,103.37670000000004,21.0,3.0,3.0,9.0,4.0,114.0,1.0,0.0,0.0,1.0,95.5,161.78509458855092,3.5445652835027213,631.6639332347906
B-946,"benzeneacetic acid, 2,5-dihydroxy-","InChI=1S/C8H8O4/c9-6-1-2-7(10)5(3-6)4-8(11)12/h1-3,9-10H,4H2,(H,11,12)",IGMNYECMUMZDDF-UHFFFAOYSA-N,O=C(O)Cc1cc(O)ccc1O,0.7037,0.0,1,G1,168.148,0.7248999999999999,41.11140000000002,12.0,3.0,3.0,4.0,2.0,64.0,1.0,0.0,0.0,1.0,77.76,68.70551070492198,2.9694149923977777,305.92621196610224
B-949,"benzoic acid, 4-fluoro-3-nitro-","InChI=1S/C7H4FNO4/c8-5-2-1-4(7(10)11)3-6(5)9(12)13/h1-3H,(H,10,11)",BOJWTAQWPVBIPG-UHFFFAOYSA-N,O=C(O)c1ccc(F)c([N+](=O)[O-])c1,-1.5809,0.0,1,G1,185.11,1.4320999999999997,40.01370000000001,13.0,3.0,1.0,6.0,2.0,68.0,1.0,0.0,0.0,1.0,80.44,71.57061221155939,3.267052212361691,376.7553335743196
B-950,m-fluorobenzyl chloride,"InChI=1S/C7H6ClF/c8-5-6-2-1-3-7(9)4-6/h1-4H,5H2",XBDXMDVEZLOGMC-UHFFFAOYSA-N,Fc1cccc(CCl)c1,-2.5436,0.0,1,G1,144.57600000000002,2.5645000000000007,35.95700000000001,9.0,0.0,0.0,2.0,1.0,48.0,1.0,0.0,0.0,1.0,0.0,58.26514686370148,2.9368661023365914,197.8625685371975
B-978,tetryl,"InChI=1S/C7H5N5O8/c1-8(12(19)20)7-5(10(15)16)2-4(9(13)14)3-6(7)11(17)18/h2-3H,1H3",AGUIVNYEYSCPNI-UHFFFAOYSA-N,CN(c1c([N+](=O)[O-])cc([N+](=O)[O-])cc1[N+](=O)[O-])[N+](=O)[O-],-3.5889,0.0,1,G1,287.144,1.0391,61.802599999999984,20.0,8.0,0.0,13.0,5.0,106.0,1.0,0.0,0.0,1.0,175.79999999999998,108.1382178143311,3.769454572555376,592.636916840488
B-981,"2,4,6-trimethylbenzoic acid","InChI=1S/C10H12O2/c1-6-4-7(2)9(10(11)12)8(3)5-6/h4-5H,1-3H3,(H,11,12)",FFFIRKXTFQCCKJ-UHFFFAOYSA-N,Cc1cc(C)c(C(=O)O)c(C)c1,-2.3566,0.0,1,G1,164.20399999999998,2.31006,47.61230000000002,12.0,1.0,1.0,2.0,1.0,64.0,1.0,0.0,0.0,1.0,37.3,71.84692742932317,3.3798143363005275,303.6056187059636
B-982,"benzoic acid, 2,6-dihydroxy-4-methyl-","InChI=1S/C8H8O4/c1-4-2-5(9)7(8(11)12)6(10)3-4/h2-3,9-10H,1H3,(H,11,12)",YBZAVRDNSPUMFK-UHFFFAOYSA-N,Cc1cc(O)c(C(=O)O)c(O)c1,-2.0496,0.0,1,G1,168.148,1.1044199999999995,41.467900000000014,12.0,3.0,3.0,4.0,1.0,64.0,1.0,0.0,0.0,1.0,77.76,68.70551070492198,3.379814336300526,306.8248996548372
B-989,binapacryl,"InChI=1S/C15H18N2O6/c1-5-10(4)12-7-11(16(19)20)8-13(17(21)22)15(12)23-14(18)6-9(2)3/h6-8,10H,5H2,1-4H3",ZRDUSMYWDRPZRM-UHFFFAOYSA-N,CCC(C)c1cc([N+](=O)[O-])cc([N+](=O)[O-])c1OC(=O)C=C(C)C,-5.5083,0.0,1,G1,322.31700000000006,3.888100000000004,83.52280000000003,23.0,6.0,0.0,8.0,6.0,124.0,1.0,0.0,0.0,1.0,112.58,132.6072978914324,3.5541562107782054,676.7898291174962
B-1002,atropic acid,"InChI=1S/C9H8O2/c1-7(9(10)11)8-5-3-2-4-6-8/h2-6H,1H2,(H,10,11)",ONPJWQSDZCGSQM-UHFFFAOYSA-N,C=C(C(=O)O)c1ccccc1,-2.0568,0.0,1,G1,148.161,1.7844,43.11180000000002,11.0,1.0,1.0,2.0,2.0,56.0,1.0,0.0,0.0,1.0,37.3,64.79238228274231,2.9479803431399967,274.87402422213546
B-1003,2-amino-1-phenyl-propan-1-ol,"InChI=1S/C9H13NO/c1-7(10)9(11)8-5-3-2-4-6-8/h2-7,9,11H,10H2,1H3/t7-,9+/m0/s1",DLNKOYKMWOXYQA-IONNQARKSA-N,C[C@H](N)[C@@H](O)c1ccccc1,-0.8786,0.0,1,G1,151.20899999999995,1.0672,45.05120000000002,11.0,2.0,2.0,2.0,2.0,60.0,1.0,0.0,0.0,1.0,46.25,66.66035391189551,2.7679177813074443,208.06253483771292
B-1007,gentisyl alcohol,"InChI=1S/C7H8O3/c8-4-5-3-6(9)1-2-7(5)10/h1-3,8-10H,4H2",PUZSUVGRVHEUQO-UHFFFAOYSA-N,OCc1cc(O)ccc1O,0.8534,0.0,1,G1,140.13799999999998,0.5900999999999998,35.69440000000001,10.0,3.0,3.0,3.0,1.0,54.0,1.0,0.0,0.0,1.0,60.69,58.1790464904816,3.090683646458197,232.29287048965844
B-1015,"ethanone, 1-(4-hydroxy-3-methoxyphenyl)-","InChI=1S/C9H10O3/c1-6(10)7-3-4-8(11)9(5-7)12-2/h3-5,11H,1-2H3",DFYRUELUNQRZTB-UHFFFAOYSA-N,COc1cc(C(C)=O)ccc1O,-1.5216,0.0,1,G1,166.17599999999996,1.6034,44.66330000000002,12.0,3.0,1.0,3.0,2.0,64.0,1.0,0.0,0.0,1.0,46.53,70.59553054443344,3.1343002499495434,304.64199945095794
B-1018,"phenol, 2-methyl-5-(1-methylethyl)-","InChI=1S/C10H14O/c1-7(2)9-5-4-8(3)10(11)6-9/h4-7,11H,1-3H3",RECUKUPTGUEGMW-UHFFFAOYSA-N,Cc1ccc(C(C)C)cc1O,-2.0798,0.0,1,G1,150.22099999999998,2.824020000000001,46.93280000000003,11.0,1.0,1.0,1.0,1.0,60.0,1.0,0.0,0.0,1.0,20.23,67.6854053292794,3.051645448959173,251.0497317859833
B-1020,"acetic acid, oxo(phenylamino)-","InChI=1S/C8H7NO3/c10-7(8(11)12)9-6-4-2-1-3-5-6/h1-5H,(H,9,10)(H,11,12)",PQJZHMCWDKOPQG-UHFFFAOYSA-N,O=C(O)C(=O)Nc1ccccc1,-1.3019,0.0,1,G1,165.148,0.7096999999999998,42.70750000000002,12.0,2.0,2.0,4.0,1.0,62.0,1.0,0.0,0.0,1.0,66.39999999999999,68.82842748418176,2.6503977732748716,294.4310994682657
B-1021,n-benzyl-3-chloropropanamide,"InChI=1S/C10H12ClNO/c11-7-6-10(13)12-8-9-4-2-1-3-5-9/h1-5H,6-8H2,(H,12,13)",JPYQFYIEOUVJDU-UHFFFAOYSA-N,O=C(CCCl)NCc1ccccc1,-3.2959,0.0,1,G1,197.665,1.9317,53.62570000000003,13.0,1.0,1.0,3.0,4.0,70.0,1.0,0.0,0.0,1.0,29.1,82.9058220876169,2.310042822879905,260.88707266800486
B-1057,"benzeneacetic acid, .alpha.-hydroxy-.alpha.-meth","InChI=1S/C9H10O3/c1-9(12,8(10)11)7-5-3-2-4-6-7/h2-6,12H,1H3,(H,10,11)",NWCHELUCVWSRRS-UHFFFAOYSA-N,CC(O)(C(=O)O)c1ccccc1,-0.8949,0.0,1,G1,166.176,0.9787,43.64860000000002,12.0,2.0,2.0,3.0,2.0,64.0,1.0,0.0,0.0,1.0,57.53,70.27621906712257,3.0600131896297444,277.0849389236156
B-1066,"6-formyl-2,3-dimethoxybenzoic acid","InChI=1S/C10H10O5/c1-14-7-4-3-6(5-11)8(10(12)13)9(7)15-2/h3-5H,1-2H3,(H,12,13)",HVXXOIGTXJOVON-UHFFFAOYSA-N,COc1ccc(C=O)c(C(=O)O)c1OC,-1.9247,0.0,1,G1,210.18499999999997,1.2145,51.892800000000015,15.0,4.0,1.0,5.0,4.0,80.0,1.0,0.0,0.0,1.0,72.83,86.2355399883807,3.508120619291252,397.04437576482303
B-1067,dioxypyramidon,"InChI=1S/C13H17N3O3/c1-10(17)15(4)16(11-8-6-5-7-9-11)13(19)12(18)14(2)3/h5-9H,1-4H3",IRTZMJWVZQYURE-UHFFFAOYSA-N,CC(=O)N(C)N(C(=O)C(=O)N(C)C)c1ccccc1,-0.5345,0.0,1,G1,263.29699999999997,0.5010999999999997,71.06600000000005,19.0,3.0,0.0,6.0,1.0,102.0,1.0,0.0,0.0,1.0,60.93000000000001,111.72020125124963,3.174545745222108,485.1666259699996
B-1080,1-methyl-2-isopropylbenzene,"InChI=1S/C10H14/c1-8(2)10-7-5-4-6-9(10)3/h4-8H,1-3H3",WWRCMNKATXZARA-UHFFFAOYSA-N,Cc1ccccc1C(C)C,-3.7606,0.0,1,G1,134.22199999999995,3.118420000000002,45.26800000000003,10.0,0.0,0.0,0.0,1.0,54.0,1.0,0.0,0.0,1.0,0.0,62.89117157708339,3.0313278985819716,211.03322454351996
B-1082,"ethanone, 1-(2,3,4-trihydroxyphenyl)-","InChI=1S/C8H8O4/c1-4(9)5-2-3-6(10)8(12)7(5)11/h2-3,10-12H,1H3",XIROXSOOOAZHLL-UHFFFAOYSA-N,CC(=O)c1ccc(O)c(O)c1O,-2.0216,0.0,1,G1,168.14799999999997,1.006,41.44090000000002,12.0,4.0,3.0,4.0,1.0,64.0,1.0,0.0,0.0,1.0,77.76,68.70551070492198,3.361225110466304,330.0748996548373
B-1083,trimellitic acid,"InChI=1S/C9H6O6/c10-7(11)4-1-2-5(8(12)13)6(3-4)9(14)15/h1-3H,(H,10,11)(H,12,13)(H,14,15)",ARCGXLSVLAOJQL-UHFFFAOYSA-N,O=C(O)c1ccc(C(=O)O)c(C(=O)O)c1,-1.0003,0.30015,2,G3,210.14099999999996,0.7811999999999999,47.3199,15.0,3.0,3.0,6.0,3.0,78.0,1.0,0.0,0.0,1.0,111.9,83.39349701940613,3.3963489782409875,447.9158332869801
B-1084,"3,4-dinitrobenzoic acid","InChI=1S/C7H4N2O6/c10-7(11)4-1-2-5(8(12)13)6(3-4)9(14)15/h1-3H,(H,10,11)",OMVRRHJJQILIJX-UHFFFAOYSA-N,O=C(O)c1ccc([N+](=O)[O-])c([N+](=O)[O-])c1,-1.5005,0.0,1,G1,212.11699999999996,1.2011999999999998,46.7101,15.0,5.0,1.0,8.0,3.0,78.0,1.0,0.0,0.0,1.0,123.58,82.05805253113294,3.3963489782409875,454.7936738455577
B-1092,"1,2-propanediol, 3-(2-methoxyphenoxy)-, 1-carbam","InChI=1S/C11H15NO5/c1-15-9-4-2-3-5-10(9)16-6-8(13)7-17-11(12)14/h2-5,8,13H,6-7H2,1H3,(H2,12,14)",GNXFOGHNGIVQEH-UHFFFAOYSA-N,COc1ccccc1OCC(O)COC(N)=O,-1.5251,0.2700499999999999,2,G3,241.2429999999999,0.5302000000000002,60.03120000000003,17.0,5.0,2.0,6.0,6.0,94.0,1.0,0.0,0.0,1.0,91.01,98.89239592925314,2.4107583404005677,368.6343524510428
B-1093,"benzoic acid, sodium salt","InChI=1S/C7H6O2.Na/c8-7(9)6-4-2-1-3-5-6;/h1-5H,(H,8,9);/q;+1/p-1",WXMKPNITSTVMEF-UHFFFAOYSA-M,O=C([O-])c1ccccc1.[Na+],0.5864,0.0,1,G1,144.105,-2.945899999999998,30.772499999999994,10.0,2.0,0.0,3.0,1.0,46.0,1.0,0.0,0.0,1.0,40.129999999999995,81.1655007088453,8.099998872750162e-07,208.10590854015385
B-1095,"2,4-d, ethyl ester","InChI=1S/C10H10Cl2O3/c1-2-14-10(13)6-15-9-4-3-7(11)5-8(9)12/h3-5H,2,6H2,1H3",JSLBZIVMVVHMDJ-UHFFFAOYSA-N,CCOC(=O)COc1ccc(Cl)cc1Cl,-3.3503,0.0,1,G1,249.093,2.9353000000000016,58.590000000000025,15.0,3.0,0.0,5.0,4.0,82.0,1.0,0.0,0.0,1.0,35.53,97.88631658990424,2.5396182727640744,352.5207793847902
B-1096,"1,3-benzenediol, 4-pentyl-","InChI=1S/C11H16O2/c1-2-3-4-5-9-6-7-10(12)8-11(9)13/h6-8,12-13H,2-5H2,1H3",PJHYOCWMKYASAB-UHFFFAOYSA-N,CCCCCc1ccc(O)cc1O,-1.9548,0.0,1,G1,180.247,2.830500000000002,53.00060000000004,13.0,2.0,2.0,2.0,4.0,72.0,1.0,0.0,0.0,1.0,40.46,78.84458119587202,2.561779868632507,268.7928308075413
B-1103,m-cymene,"InChI=1S/C10H14/c1-8(2)10-6-4-5-9(3)7-10/h4-8H,1-3H3",XCYJPXQACVEIOS-UHFFFAOYSA-N,Cc1cccc(C(C)C)c1,-3.4994,0.0,1,G1,134.22199999999998,3.1184200000000013,45.26800000000003,10.0,0.0,0.0,0.0,1.0,54.0,1.0,0.0,0.0,1.0,0.0,62.891171577083384,2.955063748648017,211.03322454351996
B-1109,"l-tyrosine, n-methyl-","InChI=1S/C10H13NO3/c1-11-9(10(13)14)6-7-2-4-8(12)5-3-7/h2-5,9,11-12H,6H2,1H3,(H,13,14)/t9-/m0/s1",AXDLCFOOGCNDST-VIFPVBQESA-N,CN[C@@H](Cc1ccc(O)cc1)C(=O)O,-2.1325,0.0,1,G1,195.218,0.6072999999999997,52.29430000000003,14.0,3.0,3.0,4.0,4.0,76.0,1.0,0.0,0.0,1.0,69.56,82.19102336512725,2.6716306900583486,307.64807890805156
B-1111,butyl cinnamate,"InChI=1S/C13H16O2/c1-2-3-11-15-13(14)10-9-12-7-5-4-6-8-12/h4-10H,2-3,11H2,1H3/b10-9+",OHHIVLJVBNCSHV-MDZDMXLPSA-N,CCCCOC(=O)/C=C/c1ccccc1,-1.6112,0.0,1,G1,204.269,3.0431000000000017,61.34300000000004,15.0,2.0,0.0,2.0,5.0,80.0,1.0,0.0,0.0,1.0,26.3,90.57146221763963,2.344827166745183,314.5676547509674
B-1112,benzyl methyl ether,"InChI=1S/C8H10O/c1-9-7-8-5-3-2-4-6-8/h2-6H,7H2,1H3",GQKZBCPTCWJTAS-UHFFFAOYSA-N,COCc1ccccc1,-1.6098,0.0,1,G1,122.16699999999996,1.833,37.15500000000001,9.0,1.0,0.0,1.0,2.0,48.0,1.0,0.0,0.0,1.0,9.23,55.274832577797056,2.61489994009295,157.4784207656209